 Entering Gaussian System, Link 0=g09
 Initial command:
 /global/apps/Gaussian/09.d01/l1.exe "/global/work/gvi022/1443120/Gau-17024.inp" -scrdir="/global/work/gvi022/1443120/"
 Entering Link 1 = /global/apps/Gaussian/09.d01/l1.exe PID=     17025.
  
 Copyright (c) 1988,1990,1992,1993,1995,1998,2003,2009,2013,
            Gaussian, Inc.  All Rights Reserved.
  
 This is part of the Gaussian(R) 09 program.  It is based on
 the Gaussian(R) 03 system (copyright 2003, Gaussian, Inc.),
 the Gaussian(R) 98 system (copyright 1998, Gaussian, Inc.),
 the Gaussian(R) 94 system (copyright 1995, Gaussian, Inc.),
 the Gaussian 92(TM) system (copyright 1992, Gaussian, Inc.),
 the Gaussian 90(TM) system (copyright 1990, Gaussian, Inc.),
 the Gaussian 88(TM) system (copyright 1988, Gaussian, Inc.),
 the Gaussian 86(TM) system (copyright 1986, Carnegie Mellon
 University), and the Gaussian 82(TM) system (copyright 1983,
 Carnegie Mellon University). Gaussian is a federally registered
 trademark of Gaussian, Inc.
  
 This software contains proprietary and confidential information,
 including trade secrets, belonging to Gaussian, Inc.
  
 This software is provided under written license and may be
 used, copied, transmitted, or stored only in accord with that
 written license.
  
 The following legend is applicable only to US Government
 contracts under FAR:
  
                    RESTRICTED RIGHTS LEGEND
  
 Use, reproduction and disclosure by the US Government is
 subject to restrictions as set forth in subparagraphs (a)
 and (c) of the Commercial Computer Software - Restricted
 Rights clause in FAR 52.227-19.
  
 Gaussian, Inc.
 340 Quinnipiac St., Bldg. 40, Wallingford CT 06492
  
  
 ---------------------------------------------------------------
 Warning -- This program may not be used in any manner that
 competes with the business of Gaussian, Inc. or will provide
 assistance to any competitor of Gaussian, Inc.  The licensee
 of this program is prohibited from giving any competitor of
 Gaussian, Inc. access to this program.  By using this program,
 the user acknowledges that Gaussian, Inc. is engaged in the
 business of creating and licensing software in the field of
 computational chemistry and represents and warrants to the
 licensee that it is not a competitor of Gaussian, Inc. and that
 it will not use this program in any manner prohibited above.
 ---------------------------------------------------------------
  

 Cite this work as:
 Gaussian 09, Revision D.01,
 M. J. Frisch, G. W. Trucks, H. B. Schlegel, G. E. Scuseria, 
 M. A. Robb, J. R. Cheeseman, G. Scalmani, V. Barone, B. Mennucci, 
 G. A. Petersson, H. Nakatsuji, M. Caricato, X. Li, H. P. Hratchian, 
 A. F. Izmaylov, J. Bloino, G. Zheng, J. L. Sonnenberg, M. Hada, 
 M. Ehara, K. Toyota, R. Fukuda, J. Hasegawa, M. Ishida, T. Nakajima, 
 Y. Honda, O. Kitao, H. Nakai, T. Vreven, J. A. Montgomery, Jr., 
 J. E. Peralta, F. Ogliaro, M. Bearpark, J. J. Heyd, E. Brothers, 
 K. N. Kudin, V. N. Staroverov, T. Keith, R. Kobayashi, J. Normand, 
 K. Raghavachari, A. Rendell, J. C. Burant, S. S. Iyengar, J. Tomasi, 
 M. Cossi, N. Rega, J. M. Millam, M. Klene, J. E. Knox, J. B. Cross, 
 V. Bakken, C. Adamo, J. Jaramillo, R. Gomperts, R. E. Stratmann, 
 O. Yazyev, A. J. Austin, R. Cammi, C. Pomelli, J. W. Ochterski, 
 R. L. Martin, K. Morokuma, V. G. Zakrzewski, G. A. Voth, 
 P. Salvador, J. J. Dannenberg, S. Dapprich, A. D. Daniels, 
 O. Farkas, J. B. Foresman, J. V. Ortiz, J. Cioslowski, 
 and D. J. Fox, Gaussian, Inc., Wallingford CT, 2013.
 
 ******************************************
 Gaussian 09:  EM64L-G09RevD.01 24-Apr-2013
                 6-Feb-2019 
 ******************************************
 %LindaWorkers=cib52-2,cib52-4,cib52-5,cib52-8
 %NProcShared=20
 Will use up to   20 processors via shared memory.
 %chk=ChorA_frwd.chk
 SetLPE:  input flags=""
 SetLPE:    new flags=" -nodelist 'cib52-2.ibnet cib52-4.ibnet cib52-5.ibnet cib52-8.ibnet'"
 Will use up to    4 processors via Linda.
 ----------------------------------------------------------------------
 #p opt freq=noraman rb3lyp/6-31g(d,p) geom=connectivity empiricaldispe
 rsion=gd3
 ----------------------------------------------------------------------
 1/14=-1,18=20,19=15,26=3,38=1,57=2/1,3;
 2/9=110,12=2,17=6,18=5,40=1/2;
 3/5=1,6=6,7=101,11=2,16=1,25=1,30=1,71=1,74=-5,116=1,124=31/1,2,3;
 4//1;
 5/5=2,38=5/2;
 6/7=2,8=2,9=2,10=2,28=1/1;
 7//1,2,3,16;
 1/14=-1,18=20,19=15,26=3/3(2);
 2/9=110/2;
 99//99;
 2/9=110/2;
 3/5=1,6=6,7=101,11=2,16=1,25=1,30=1,71=1,74=-5,116=1,124=31/1,2,3;
 4/5=5,16=3,69=1/1;
 5/5=2,38=5/2;
 7//1,2,3,16;
 1/14=-1,18=20,19=15,26=3/3(-5);
 2/9=110/2;
 6/7=2,8=2,9=2,10=2,19=2,28=1/1;
 99/9=1/99;
 Leave Link    1 at Wed Feb  6 09:17:11 2019, MaxMem=           0 cpu:         8.6
 (Enter /global/apps/Gaussian/09.d01/l101.exe)
 -------------------
 Title Card Required
 -------------------
 Symbolic Z-matrix:
 Charge = -2 Multiplicity = 1
 C                    -1.63445   0.2861   -0.5081 
 C                    -0.70613   0.42327  -1.63822 
 C                    -1.38764   0.96641   0.63071 
 C                     0.38849   1.20114  -1.58434 
 H                    -0.97607  -0.12317  -2.53633 
 C                    -2.82843  -0.66648  -0.62492 
 C                     0.00342   1.42624   0.90896 
 H                    -2.07521   0.90403   1.46527 
 C                     0.82038   1.87904  -0.32034 
 H                     1.03983   1.31686  -2.44704 
 O                    -3.11036  -1.06753  -1.78226 
 O                    -3.39526  -0.99428   0.46579 
 H                     0.04428   2.21333   1.66916 
 O                     0.75485   3.32732  -0.52443 
 H                     1.86044   1.60201  -0.10918 
 H                     1.2873    3.71907   0.18166 
 C                     0.03453  -1.87172   0.78269 
 C                     0.92033  -0.8714    0.85256 
 H                     0.32482  -2.7515    0.22313 
 H                    -0.93971  -1.84617   1.2493 
 C                     2.28239  -0.99591   0.15636 
 O                     0.66765   0.28575   1.59079 
 O                     3.07038  -0.00162   0.22191 
 O                     2.49882  -2.09137  -0.425 
 O                    -2.26696  -0.80555   3.12903 
 H                    -1.36012  -0.56886   2.8924 
 H                    -2.70237  -0.89913   2.25202 
 O                     5.75548  -0.74076   0.93207 
 H                     4.8411   -0.4008    0.97098 
 H                     5.70782  -1.17984   0.06288 
 O                     4.7795   -1.36714  -1.7179 
 H                     4.01449  -1.86896  -1.33464 
 H                     4.49717  -0.49179  -1.40255 
 O                    -1.84759   4.31019  -0.01667 
 H                    -0.95227   4.05773  -0.31397 
 H                    -2.28297   3.44714   0.02819 
 O                    -5.48284  -2.37788  -0.93669 
 H                    -4.79381  -2.07584  -1.56119 
 H                    -5.03014  -2.052    -0.13617 
 
 Add virtual bond connecting atoms H32        and O24        Dist= 3.37D+00.
 Add virtual bond connecting atoms H35        and O14        Dist= 3.53D+00.
 Add virtual bond connecting atoms H27        and H8         Dist= 3.90D+00.
 Add virtual bond connecting atoms H27        and O12        Dist= 3.62D+00.
 Add virtual bond connecting atoms H29        and O23        Dist= 3.71D+00.
 Add virtual bond connecting atoms H30        and O31        Dist= 3.81D+00.
 Add virtual bond connecting atoms H30        and H33        Dist= 3.82D+00.
 Add virtual bond connecting atoms H38        and O11        Dist= 3.73D+00.
 Add virtual bond connecting atoms H39        and O12        Dist= 3.85D+00.
 NAtoms=     39 NQM=       39 NQMF=       0 NMMI=      0 NMMIF=      0
                NMic=       0 NMicF=      0.
                    Isotopes and Nuclear Properties:
 (Nuclear quadrupole moments (NQMom) in fm**2, nuclear magnetic moments (NMagM)
  in nuclear magnetons)

  Atom         1           2           3           4           5           6           7           8           9          10
 IAtWgt=          12          12          12          12           1          12          12           1          12           1
 AtmWgt=  12.0000000  12.0000000  12.0000000  12.0000000   1.0078250  12.0000000  12.0000000   1.0078250  12.0000000   1.0078250
 NucSpn=           0           0           0           0           1           0           0           1           0           1
 AtZEff=   0.0000000   0.0000000   0.0000000   0.0000000   0.0000000   0.0000000   0.0000000   0.0000000   0.0000000   0.0000000
 NQMom=    0.0000000   0.0000000   0.0000000   0.0000000   0.0000000   0.0000000   0.0000000   0.0000000   0.0000000   0.0000000
 NMagM=    0.0000000   0.0000000   0.0000000   0.0000000   2.7928460   0.0000000   0.0000000   2.7928460   0.0000000   2.7928460
 AtZNuc=   6.0000000   6.0000000   6.0000000   6.0000000   1.0000000   6.0000000   6.0000000   1.0000000   6.0000000   1.0000000

  Atom        11          12          13          14          15          16          17          18          19          20
 IAtWgt=          16          16           1          16           1           1          12          12           1           1
 AtmWgt=  15.9949146  15.9949146   1.0078250  15.9949146   1.0078250   1.0078250  12.0000000  12.0000000   1.0078250   1.0078250
 NucSpn=           0           0           1           0           1           1           0           0           1           1
 AtZEff=   0.0000000   0.0000000   0.0000000   0.0000000   0.0000000   0.0000000   0.0000000   0.0000000   0.0000000   0.0000000
 NQMom=    0.0000000   0.0000000   0.0000000   0.0000000   0.0000000   0.0000000   0.0000000   0.0000000   0.0000000   0.0000000
 NMagM=    0.0000000   0.0000000   2.7928460   0.0000000   2.7928460   2.7928460   0.0000000   0.0000000   2.7928460   2.7928460
 AtZNuc=   8.0000000   8.0000000   1.0000000   8.0000000   1.0000000   1.0000000   6.0000000   6.0000000   1.0000000   1.0000000

  Atom        21          22          23          24          25          26          27          28          29          30
 IAtWgt=          12          16          16          16          16           1           1          16           1           1
 AtmWgt=  12.0000000  15.9949146  15.9949146  15.9949146  15.9949146   1.0078250   1.0078250  15.9949146   1.0078250   1.0078250
 NucSpn=           0           0           0           0           0           1           1           0           1           1
 AtZEff=   0.0000000   0.0000000   0.0000000   0.0000000   0.0000000   0.0000000   0.0000000   0.0000000   0.0000000   0.0000000
 NQMom=    0.0000000   0.0000000   0.0000000   0.0000000   0.0000000   0.0000000   0.0000000   0.0000000   0.0000000   0.0000000
 NMagM=    0.0000000   0.0000000   0.0000000   0.0000000   0.0000000   2.7928460   2.7928460   0.0000000   2.7928460   2.7928460
 AtZNuc=   6.0000000   8.0000000   8.0000000   8.0000000   8.0000000   1.0000000   1.0000000   8.0000000   1.0000000   1.0000000

  Atom        31          32          33          34          35          36          37          38          39
 IAtWgt=          16           1           1          16           1           1          16           1           1
 AtmWgt=  15.9949146   1.0078250   1.0078250  15.9949146   1.0078250   1.0078250  15.9949146   1.0078250   1.0078250
 NucSpn=           0           1           1           0           1           1           0           1           1
 AtZEff=   0.0000000   0.0000000   0.0000000   0.0000000   0.0000000   0.0000000   0.0000000   0.0000000   0.0000000
 NQMom=    0.0000000   0.0000000   0.0000000   0.0000000   0.0000000   0.0000000   0.0000000   0.0000000   0.0000000
 NMagM=    0.0000000   2.7928460   2.7928460   0.0000000   2.7928460   2.7928460   0.0000000   2.7928460   2.7928460
 AtZNuc=   8.0000000   1.0000000   1.0000000   8.0000000   1.0000000   1.0000000   8.0000000   1.0000000   1.0000000
 Leave Link  101 at Wed Feb  6 09:17:11 2019, MaxMem=    33554432 cpu:         4.5
 (Enter /global/apps/Gaussian/09.d01/l103.exe)

 GradGradGradGradGradGradGradGradGradGradGradGradGradGradGradGradGradGrad
 Berny optimization.
 Initialization pass.
                           ----------------------------
                           !    Initial Parameters    !
                           ! (Angstroms and Degrees)  !
 --------------------------                            --------------------------
 ! Name  Definition              Value          Derivative Info.                !
 --------------------------------------------------------------------------------
 ! R1    R(1,2)                  1.4689         estimate D2E/DX2                !
 ! R2    R(1,3)                  1.3493         estimate D2E/DX2                !
 ! R3    R(1,6)                  1.5319         estimate D2E/DX2                !
 ! R4    R(2,4)                  1.3439         estimate D2E/DX2                !
 ! R5    R(2,5)                  1.0854         estimate D2E/DX2                !
 ! R6    R(3,7)                  1.4913         estimate D2E/DX2                !
 ! R7    R(3,8)                  1.0831         estimate D2E/DX2                !
 ! R8    R(4,9)                  1.4979         estimate D2E/DX2                !
 ! R9    R(4,10)                 1.0871         estimate D2E/DX2                !
 ! R10   R(6,11)                 1.2569         estimate D2E/DX2                !
 ! R11   R(6,12)                 1.2722         estimate D2E/DX2                !
 ! R12   R(7,9)                  1.5439         estimate D2E/DX2                !
 ! R13   R(7,13)                 1.095          estimate D2E/DX2                !
 ! R14   R(7,22)                 1.4855         estimate D2E/DX2                !
 ! R15   R(8,27)                 2.0649         estimate D2E/DX2                !
 ! R16   R(9,14)                 1.4641         estimate D2E/DX2                !
 ! R17   R(9,15)                 1.0968         estimate D2E/DX2                !
 ! R18   R(11,38)                1.9747         estimate D2E/DX2                !
 ! R19   R(12,27)                1.9183         estimate D2E/DX2                !
 ! R20   R(12,39)                2.0381         estimate D2E/DX2                !
 ! R21   R(14,16)                0.9672         estimate D2E/DX2                !
 ! R22   R(14,35)                1.8687         estimate D2E/DX2                !
 ! R23   R(17,18)                1.338          estimate D2E/DX2                !
 ! R24   R(17,19)                1.0823         estimate D2E/DX2                !
 ! R25   R(17,20)                1.0805         estimate D2E/DX2                !
 ! R26   R(18,21)                1.5347         estimate D2E/DX2                !
 ! R27   R(18,22)                1.3956         estimate D2E/DX2                !
 ! R28   R(21,23)                1.2704         estimate D2E/DX2                !
 ! R29   R(21,24)                1.2589         estimate D2E/DX2                !
 ! R30   R(23,29)                1.9637         estimate D2E/DX2                !
 ! R31   R(24,32)                1.7816         estimate D2E/DX2                !
 ! R32   R(25,26)                0.9666         estimate D2E/DX2                !
 ! R33   R(25,27)                0.9836         estimate D2E/DX2                !
 ! R34   R(28,29)                0.9763         estimate D2E/DX2                !
 ! R35   R(28,30)                0.975          estimate D2E/DX2                !
 ! R36   R(30,31)                2.0169         estimate D2E/DX2                !
 ! R37   R(30,33)                2.0215         estimate D2E/DX2                !
 ! R38   R(31,32)                0.9919         estimate D2E/DX2                !
 ! R39   R(31,33)                0.9723         estimate D2E/DX2                !
 ! R40   R(34,35)                0.9766         estimate D2E/DX2                !
 ! R41   R(34,36)                0.9677         estimate D2E/DX2                !
 ! R42   R(37,38)                0.9778         estimate D2E/DX2                !
 ! R43   R(37,39)                0.9757         estimate D2E/DX2                !
 ! A1    A(2,1,3)              119.1202         estimate D2E/DX2                !
 ! A2    A(2,1,6)              119.4701         estimate D2E/DX2                !
 ! A3    A(3,1,6)              121.3633         estimate D2E/DX2                !
 ! A4    A(1,2,4)              122.5433         estimate D2E/DX2                !
 ! A5    A(1,2,5)              115.6209         estimate D2E/DX2                !
 ! A6    A(4,2,5)              121.8119         estimate D2E/DX2                !
 ! A7    A(1,3,7)              118.9191         estimate D2E/DX2                !
 ! A8    A(1,3,8)              120.3422         estimate D2E/DX2                !
 ! A9    A(7,3,8)              117.7835         estimate D2E/DX2                !
 ! A10   A(2,4,9)              122.0464         estimate D2E/DX2                !
 ! A11   A(2,4,10)             121.1835         estimate D2E/DX2                !
 ! A12   A(9,4,10)             116.6605         estimate D2E/DX2                !
 ! A13   A(1,6,11)             116.3256         estimate D2E/DX2                !
 ! A14   A(1,6,12)             116.2401         estimate D2E/DX2                !
 ! A15   A(11,6,12)            127.3943         estimate D2E/DX2                !
 ! A16   A(3,7,9)              115.8144         estimate D2E/DX2                !
 ! A17   A(3,7,13)             112.7048         estimate D2E/DX2                !
 ! A18   A(3,7,22)             105.4261         estimate D2E/DX2                !
 ! A19   A(9,7,13)             108.7967         estimate D2E/DX2                !
 ! A20   A(9,7,22)             110.7329         estimate D2E/DX2                !
 ! A21   A(13,7,22)            102.5041         estimate D2E/DX2                !
 ! A22   A(3,8,27)             122.4576         estimate D2E/DX2                !
 ! A23   A(4,9,7)              112.7425         estimate D2E/DX2                !
 ! A24   A(4,9,14)             108.4907         estimate D2E/DX2                !
 ! A25   A(4,9,15)             108.757          estimate D2E/DX2                !
 ! A26   A(7,9,14)             112.1746         estimate D2E/DX2                !
 ! A27   A(7,9,15)             105.9261         estimate D2E/DX2                !
 ! A28   A(14,9,15)            108.6098         estimate D2E/DX2                !
 ! A29   A(6,11,38)            104.5407         estimate D2E/DX2                !
 ! A30   A(6,12,27)            128.6548         estimate D2E/DX2                !
 ! A31   A(6,12,39)            103.7632         estimate D2E/DX2                !
 ! A32   A(27,12,39)           126.1929         estimate D2E/DX2                !
 ! A33   A(9,14,16)            105.9184         estimate D2E/DX2                !
 ! A34   A(9,14,35)            114.3205         estimate D2E/DX2                !
 ! A35   A(16,14,35)           105.2102         estimate D2E/DX2                !
 ! A36   A(18,17,19)           117.2043         estimate D2E/DX2                !
 ! A37   A(18,17,20)           123.8278         estimate D2E/DX2                !
 ! A38   A(19,17,20)           118.9679         estimate D2E/DX2                !
 ! A39   A(17,18,21)           120.213          estimate D2E/DX2                !
 ! A40   A(17,18,22)           121.846          estimate D2E/DX2                !
 ! A41   A(21,18,22)           117.8976         estimate D2E/DX2                !
 ! A42   A(18,21,23)           117.6186         estimate D2E/DX2                !
 ! A43   A(18,21,24)           115.6361         estimate D2E/DX2                !
 ! A44   A(23,21,24)           126.7453         estimate D2E/DX2                !
 ! A45   A(7,22,18)            118.3408         estimate D2E/DX2                !
 ! A46   A(21,23,29)           114.829          estimate D2E/DX2                !
 ! A47   A(21,24,32)           105.8668         estimate D2E/DX2                !
 ! A48   A(26,25,27)           102.7269         estimate D2E/DX2                !
 ! A49   A(8,27,12)             78.3601         estimate D2E/DX2                !
 ! A50   A(8,27,25)             97.019          estimate D2E/DX2                !
 ! A51   A(29,28,30)            98.428          estimate D2E/DX2                !
 ! A52   A(23,29,28)           154.1759         estimate D2E/DX2                !
 ! A53   A(28,30,31)           148.3692         estimate D2E/DX2                !
 ! A54   A(28,30,33)           121.4836         estimate D2E/DX2                !
 ! A55   A(30,31,32)            93.4855         estimate D2E/DX2                !
 ! A56   A(32,31,33)            96.0955         estimate D2E/DX2                !
 ! A57   A(24,32,31)           156.4235         estimate D2E/DX2                !
 ! A58   A(35,34,36)           101.3056         estimate D2E/DX2                !
 ! A59   A(38,37,39)            95.387          estimate D2E/DX2                !
 ! A60   A(11,38,37)           146.0989         estimate D2E/DX2                !
 ! A61   A(12,39,37)           141.9847         estimate D2E/DX2                !
 ! A62   L(12,27,25,8,-1)      175.379          estimate D2E/DX2                !
 ! A63   L(14,35,34,1,-1)      172.9665         estimate D2E/DX2                !
 ! A64   L(12,27,25,8,-2)      183.5686         estimate D2E/DX2                !
 ! A65   L(14,35,34,1,-2)      168.4421         estimate D2E/DX2                !
 ! D1    D(3,1,2,4)              0.1585         estimate D2E/DX2                !
 ! D2    D(3,1,2,5)           -178.0929         estimate D2E/DX2                !
 ! D3    D(6,1,2,4)           -177.3975         estimate D2E/DX2                !
 ! D4    D(6,1,2,5)              4.351          estimate D2E/DX2                !
 ! D5    D(2,1,3,7)            -21.7819         estimate D2E/DX2                !
 ! D6    D(2,1,3,8)            178.0923         estimate D2E/DX2                !
 ! D7    D(6,1,3,7)            155.7262         estimate D2E/DX2                !
 ! D8    D(6,1,3,8)             -4.3995         estimate D2E/DX2                !
 ! D9    D(2,1,6,11)           -14.6261         estimate D2E/DX2                !
 ! D10   D(2,1,6,12)           163.2441         estimate D2E/DX2                !
 ! D11   D(3,1,6,11)           167.8743         estimate D2E/DX2                !
 ! D12   D(3,1,6,12)           -14.2555         estimate D2E/DX2                !
 ! D13   D(1,2,4,9)              6.3404         estimate D2E/DX2                !
 ! D14   D(1,2,4,10)          -177.5939         estimate D2E/DX2                !
 ! D15   D(5,2,4,9)           -175.515          estimate D2E/DX2                !
 ! D16   D(5,2,4,10)             0.5508         estimate D2E/DX2                !
 ! D17   D(1,3,7,9)             35.9433         estimate D2E/DX2                !
 ! D18   D(1,3,7,13)           162.1282         estimate D2E/DX2                !
 ! D19   D(1,3,7,22)           -86.8378         estimate D2E/DX2                !
 ! D20   D(8,3,7,9)           -163.4239         estimate D2E/DX2                !
 ! D21   D(8,3,7,13)           -37.239          estimate D2E/DX2                !
 ! D22   D(8,3,7,22)            73.795          estimate D2E/DX2                !
 ! D23   D(1,3,8,27)            52.294          estimate D2E/DX2                !
 ! D24   D(7,3,8,27)          -108.052          estimate D2E/DX2                !
 ! D25   D(2,4,9,7)              8.0854         estimate D2E/DX2                !
 ! D26   D(2,4,9,14)          -116.7839         estimate D2E/DX2                !
 ! D27   D(2,4,9,15)           125.2512         estimate D2E/DX2                !
 ! D28   D(10,4,9,7)          -168.1486         estimate D2E/DX2                !
 ! D29   D(10,4,9,14)           66.9821         estimate D2E/DX2                !
 ! D30   D(10,4,9,15)          -50.9828         estimate D2E/DX2                !
 ! D31   D(1,6,11,38)         -173.5516         estimate D2E/DX2                !
 ! D32   D(12,6,11,38)           8.8531         estimate D2E/DX2                !
 ! D33   D(1,6,12,27)          -19.6744         estimate D2E/DX2                !
 ! D34   D(1,6,12,39)          173.3089         estimate D2E/DX2                !
 ! D35   D(11,6,12,27)         157.9227         estimate D2E/DX2                !
 ! D36   D(11,6,12,39)          -9.094          estimate D2E/DX2                !
 ! D37   D(3,7,9,4)            -27.8159         estimate D2E/DX2                !
 ! D38   D(3,7,9,14)            95.0177         estimate D2E/DX2                !
 ! D39   D(3,7,9,15)          -146.6447         estimate D2E/DX2                !
 ! D40   D(13,7,9,4)          -155.9548         estimate D2E/DX2                !
 ! D41   D(13,7,9,14)          -33.1212         estimate D2E/DX2                !
 ! D42   D(13,7,9,15)           85.2164         estimate D2E/DX2                !
 ! D43   D(22,7,9,4)            92.121          estimate D2E/DX2                !
 ! D44   D(22,7,9,14)         -145.0454         estimate D2E/DX2                !
 ! D45   D(22,7,9,15)          -26.7078         estimate D2E/DX2                !
 ! D46   D(3,7,22,18)           68.4427         estimate D2E/DX2                !
 ! D47   D(9,7,22,18)          -57.5343         estimate D2E/DX2                !
 ! D48   D(13,7,22,18)        -173.4366         estimate D2E/DX2                !
 ! D49   D(3,8,27,12)          -62.8555         estimate D2E/DX2                !
 ! D50   D(3,8,27,25)          113.5759         estimate D2E/DX2                !
 ! D51   D(4,9,14,16)         -162.7622         estimate D2E/DX2                !
 ! D52   D(4,9,14,35)           81.8788         estimate D2E/DX2                !
 ! D53   D(7,9,14,16)           72.0337         estimate D2E/DX2                !
 ! D54   D(7,9,14,35)          -43.3254         estimate D2E/DX2                !
 ! D55   D(15,9,14,16)         -44.7037         estimate D2E/DX2                !
 ! D56   D(15,9,14,35)        -160.0628         estimate D2E/DX2                !
 ! D57   D(6,11,38,37)           0.6019         estimate D2E/DX2                !
 ! D58   D(6,12,27,8)           42.8234         estimate D2E/DX2                !
 ! D59   D(39,12,27,8)        -152.8643         estimate D2E/DX2                !
 ! D60   D(6,12,39,37)           1.1275         estimate D2E/DX2                !
 ! D61   D(27,12,39,37)       -166.3162         estimate D2E/DX2                !
 ! D62   D(9,14,34,36)         -11.3103         estimate D2E/DX2                !
 ! D63   D(16,14,34,36)       -124.6147         estimate D2E/DX2                !
 ! D64   D(19,17,18,21)          0.0607         estimate D2E/DX2                !
 ! D65   D(19,17,18,22)       -177.4947         estimate D2E/DX2                !
 ! D66   D(20,17,18,21)       -179.9646         estimate D2E/DX2                !
 ! D67   D(20,17,18,22)          2.48           estimate D2E/DX2                !
 ! D68   D(17,18,21,23)        178.0107         estimate D2E/DX2                !
 ! D69   D(17,18,21,24)         -2.0615         estimate D2E/DX2                !
 ! D70   D(22,18,21,23)         -4.339          estimate D2E/DX2                !
 ! D71   D(22,18,21,24)        175.5888         estimate D2E/DX2                !
 ! D72   D(17,18,22,7)         -90.2694         estimate D2E/DX2                !
 ! D73   D(21,18,22,7)          92.1209         estimate D2E/DX2                !
 ! D74   D(18,21,23,29)        123.9485         estimate D2E/DX2                !
 ! D75   D(24,21,23,29)        -55.9703         estimate D2E/DX2                !
 ! D76   D(18,21,24,32)        171.7354         estimate D2E/DX2                !
 ! D77   D(23,21,24,32)         -8.3445         estimate D2E/DX2                !
 ! D78   D(21,23,29,28)         79.5608         estimate D2E/DX2                !
 ! D79   D(21,24,32,31)         -9.208          estimate D2E/DX2                !
 ! D80   D(26,25,27,8)         -50.2571         estimate D2E/DX2                !
 ! D81   D(30,28,29,23)         -9.86           estimate D2E/DX2                !
 ! D82   D(29,28,30,31)         19.727          estimate D2E/DX2                !
 ! D83   D(29,28,30,33)         30.4726         estimate D2E/DX2                !
 ! D84   D(28,30,31,32)        -75.5426         estimate D2E/DX2                !
 ! D85   D(30,31,32,24)         74.9952         estimate D2E/DX2                !
 ! D86   D(33,31,32,24)         -1.6138         estimate D2E/DX2                !
 ! D87   D(39,37,38,11)         -6.0908         estimate D2E/DX2                !
 ! D88   D(38,37,39,12)          4.8875         estimate D2E/DX2                !
 --------------------------------------------------------------------------------
 Trust Radius=3.00D-01 FncErr=1.00D-07 GrdErr=1.00D-06
 Number of steps in this run=    206 maximum allowed number of steps=    234.
 GradGradGradGradGradGradGradGradGradGradGradGradGradGradGradGradGradGrad

 Leave Link  103 at Wed Feb  6 09:17:12 2019, MaxMem=    33554432 cpu:         0.4
 (Enter /global/apps/Gaussian/09.d01/l202.exe)
                          Input orientation:                          
 ---------------------------------------------------------------------
 Center     Atomic      Atomic             Coordinates (Angstroms)
 Number     Number       Type             X           Y           Z
 ---------------------------------------------------------------------
      1          6           0       -1.634454    0.286101   -0.508098
      2          6           0       -0.706128    0.423268   -1.638218
      3          6           0       -1.387638    0.966405    0.630706
      4          6           0        0.388489    1.201142   -1.584343
      5          1           0       -0.976068   -0.123168   -2.536328
      6          6           0       -2.828427   -0.666479   -0.624917
      7          6           0        0.003417    1.426237    0.908960
      8          1           0       -2.075208    0.904034    1.465270
      9          6           0        0.820380    1.879038   -0.320344
     10          1           0        1.039829    1.316863   -2.447039
     11          8           0       -3.110359   -1.067531   -1.782255
     12          8           0       -3.395258   -0.994284    0.465792
     13          1           0        0.044284    2.213327    1.669163
     14          8           0        0.754854    3.327317   -0.524427
     15          1           0        1.860442    1.602012   -0.109180
     16          1           0        1.287301    3.719072    0.181655
     17          6           0        0.034529   -1.871724    0.782692
     18          6           0        0.920331   -0.871402    0.852563
     19          1           0        0.324819   -2.751500    0.223130
     20          1           0       -0.939708   -1.846174    1.249301
     21          6           0        2.282394   -0.995912    0.156356
     22          8           0        0.667649    0.285747    1.590787
     23          8           0        3.070378   -0.001615    0.221913
     24          8           0        2.498821   -2.091369   -0.425000
     25          8           0       -2.266963   -0.805550    3.129031
     26          1           0       -1.360120   -0.568857    2.892399
     27          1           0       -2.702368   -0.899126    2.252016
     28          8           0        5.755477   -0.740756    0.932071
     29          1           0        4.841103   -0.400804    0.970984
     30          1           0        5.707816   -1.179843    0.062883
     31          8           0        4.779503   -1.367137   -1.717904
     32          1           0        4.014494   -1.868955   -1.334635
     33          1           0        4.497173   -0.491789   -1.402549
     34          8           0       -1.847585    4.310185   -0.016667
     35          1           0       -0.952267    4.057729   -0.313966
     36          1           0       -2.282970    3.447142    0.028193
     37          8           0       -5.482843   -2.377883   -0.936685
     38          1           0       -4.793807   -2.075841   -1.561186
     39          1           0       -5.030139   -2.051999   -0.136171
 ---------------------------------------------------------------------
                    Distance matrix (angstroms):
                    1          2          3          4          5
     1  C    0.000000
     2  C    1.468937   0.000000
     3  C    1.349298   2.430529   0.000000
     4  C    2.467367   1.343941   2.848889   0.000000
     5  H    2.171334   1.085385   3.374413   2.126520   0.000000
     6  C    1.531870   2.592003   2.513717   3.841491   2.716599
     7  C    2.447567   2.827988   1.491276   2.532885   3.902570
     8  H    2.114305   3.425953   1.083116   3.931694   4.275048
     9  C    2.932390   2.487224   2.571525   1.497921   3.485203
    10  H    3.460311   2.121572   3.935471   1.087143   2.479012
    11  O    2.373624   2.832588   3.595420   4.174684   2.452681
    12  O    2.385011   3.696990   2.811056   4.831117   3.952727
    13  H    3.357503   3.834866   2.164165   3.424660   4.917975
    14  O    3.867564   3.436350   3.390945   2.403802   4.353123
    15  H    3.755670   3.211647   3.391379   2.122133   4.112552
    16  H    4.560450   4.260049   3.864469   3.204151   5.222363
    17  C    3.017922   3.417070   3.178150   3.894952   3.885183
    18  C    3.117393   3.244307   2.958627   3.242962   3.954841
    19  H    3.687881   3.821861   4.113568   4.346768   4.026791
    20  H    2.849161   3.680040   2.914430   4.368041   4.159454
    21  C    4.174536   3.763752   4.188655   3.382892   4.316226
    22  O    3.115284   3.511787   2.368387   3.316222   4.461176
    23  O    4.769816   4.231148   4.580184   3.449886   4.898611
    24  O    4.768986   4.250529   5.056586   4.078996   4.517342
    25  O    3.849737   5.164578   3.186638   5.770107   5.850500
    26  H    3.517043   4.683856   2.733686   5.121694   5.460514
    27  H    3.188014   4.568109   2.799530   5.355574   5.148831
    28  O    7.598658   7.050793   7.350463   6.237617   7.597691
    29  H    6.677751   6.185370   6.386099   5.377890   6.798367
    30  H    7.508924   6.826594   7.434667   6.056210   7.248915
    31  O    6.733177   5.770966   6.999644   5.088703   5.945071
    32  H    6.102298   5.256493   6.409747   4.757706   5.421951
    33  H    6.245159   5.288403   6.394643   4.447510   5.601580
    34  O    4.059579   4.363539   3.436787   4.138089   5.173283
    35  H    3.837739   3.876020   3.261631   3.401702   4.734909
    36  H    3.271141   3.795678   2.705309   3.844669   4.586052
    37  O    4.700063   5.581720   5.514679   6.906621   5.287118
    38  H    4.082802   4.791722   5.065732   6.131504   4.397609
    39  H    4.139531   5.203860   4.792356   6.483954   5.090838
                    6          7          8          9         10
     6  C    0.000000
     7  C    3.840778   0.000000
     8  H    2.720796   2.214240   0.000000
     9  C    4.459396   1.543906   3.538853   0.000000
    10  H    4.713510   3.514092   5.017972   2.210663   0.000000
    11  O    1.256885   4.812184   3.937642   5.125443   4.832322
    12  O    1.272163   4.195988   2.518948   5.161937   5.787571
    13  H    4.669963   1.095029   2.499613   2.161530   4.328727
    14  O    5.366601   2.496670   4.223795   1.464055   2.796350
    15  H    5.234265   2.125099   4.295976   1.096842   2.494053
    16  H    6.068182   2.726614   4.569308   1.963605   3.569577
    17  C    3.410351   3.300524   3.552708   3.987790   4.648535
    18  C    4.034616   2.474481   3.535652   2.991759   3.961080
    19  H    3.874204   4.245839   4.545984   4.688585   4.918599
    20  H    2.910607   3.422571   2.983228   4.408957   5.252266
    21  C    5.180676   3.409832   4.930694   3.260378   3.697372
    22  O    4.247190   1.485533   2.814480   2.492855   4.183988
    23  O    5.996254   3.452107   5.370586   2.982179   3.603445
    24  O    5.518138   4.514426   5.785093   4.311873   4.222955
    25  O    3.798251   3.881264   2.393230   5.351344   6.821442
    26  H    3.812738   3.126286   2.171971   4.590042   6.150227
    27  H    2.889076   3.812137   2.064869   5.171555   6.402793
    28  O    8.724284   6.146754   8.019306   5.725997   6.155446
    29  H    7.838314   5.171570   7.055656   4.799106   5.392861
    30  H    8.579281   6.328323   8.178306   5.778464   5.858613
    31  O    7.717910   6.124896   7.891633   5.307116   4.660542
    32  H    6.983926   5.655152   7.253510   5.027783   4.498390
    33  H    7.368829   5.405159   7.305402   4.506750   4.039234
    34  O    5.108738   3.549669   3.721534   3.622255   4.817037
    35  H    5.092623   3.055099   3.791104   2.808739   4.003847
    36  H    4.200709   3.176063   2.928439   3.494454   4.658954
    37  O    3.173646   6.926528   5.305878   7.630981   7.647063
    38  H    2.593380   6.432692   5.042804   6.978528   6.806356
    39  H    2.646899   6.207021   4.475976   7.050925   7.316683
                   11         12         13         14         15
    11  O    0.000000
    12  O    2.267211   0.000000
    13  H    5.712100   4.854618   0.000000
    14  O    5.986376   6.072907   2.560805   0.000000
    15  H    5.885109   5.890138   2.614314   2.090797   0.000000
    16  H    6.790282   6.650024   2.454596   0.967225   2.212469
    17  C    4.137149   3.554401   4.180140   5.409016   4.024455
    18  C    4.819460   4.334628   3.309055   4.421846   2.815410
    19  H    4.319464   4.121367   5.178727   6.139690   4.628351
    20  H    3.808982   2.714651   4.198103   5.725614   4.645029
    21  C    5.731067   5.686078   4.194870   4.635424   2.645328
    22  O    5.242339   4.405826   2.027385   3.705790   2.458698
    23  O    6.584404   6.545939   4.019670   4.123162   2.035973
    24  O    5.861168   6.061128   5.379654   5.693282   3.761427
    25  O    4.990058   2.898536   4.072677   6.289652   5.772161
    26  H    5.016413   3.195496   3.348015   5.597141   4.908581
    27  H    4.058344   1.918267   4.191799   6.125671   5.714033
    28  O    9.277790   9.166114   6.472066   6.608845   4.663053
    29  H    8.441007   8.273154   5.507323   5.729971   3.749982
    30  H    9.009848   9.113875   6.794802   6.722444   4.750854
    31  O    7.895811   8.469608   6.834782   6.297625   4.463715
    32  H    7.183744   7.675351   6.438198   6.187320   4.264891
    33  H    7.638730   8.126110   6.048247   5.418636   3.606821
    34  O    5.799287   5.546661   3.289074   2.827815   4.592627
    35  H    5.751654   5.665603   2.885781   1.868705   3.739494
    36  H    4.934021   4.599450   3.103416   3.090003   4.537757
    37  O    2.839136   2.870418   7.643218   8.463340   8.393340
    38  H    1.974730   2.689674   7.227672   7.813874   7.740410
    39  H    2.713729   2.038126   6.870372   7.909104   7.799528
                   16         17         18         19         20
    16  H    0.000000
    17  C    5.760875   0.000000
    18  C    4.653734   1.337973   0.000000
    19  H    6.541895   1.082305   2.070166   0.000000
    20  H    6.088629   1.080516   2.137130   1.863242   0.000000
    21  C    4.818913   2.492437   1.534739   2.630332   3.507052
    22  O    3.762624   2.389255   1.395642   3.348565   2.691709
    23  O    4.126075   3.609454   2.403529   3.885867   4.531966
    24  O    5.966325   2.753089   2.368991   2.362653   3.832347
    25  O    6.464675   3.455271   3.917332   4.352966   2.525448
    26  H    5.722177   2.844885   3.074560   3.837701   2.123218
    27  H    6.444502   3.255068   3.883708   4.087974   2.238148
    28  O    6.357498   5.833579   4.837564   5.834187   6.793238
    29  H    5.497811   5.030131   3.950688   5.146055   5.965260
    30  H    6.599578   5.760470   4.861969   5.610030   6.785364
    31  O    6.455488   5.387241   4.663289   5.052552   6.460894
    32  H    6.400216   4.508126   3.918264   4.101124   5.587608
    33  H    5.526693   5.157004   4.245402   5.015742   6.198898
    34  O    3.196288   6.511323   5.938498   7.392174   6.350407
    35  H    2.318619   6.110224   5.400347   6.948742   6.107375
    36  H    3.583899   5.850676   5.439719   6.727684   5.595950
    37  O    9.179237   5.801194   6.817003   5.934113   5.069647
    38  H    8.578950   5.371057   6.318879   5.462658   4.775528
    39  H    8.562495   5.150502   6.146503   5.412391   4.323601
                   21         22         23         24         25
    21  C    0.000000
    22  O    2.511502   0.000000
    23  O    1.270371   2.780198   0.000000
    24  O    1.258905   3.614868   2.261028   0.000000
    25  O    5.437801   3.488420   6.130649   6.082529   0.000000
    26  H    4.575611   2.556636   5.204092   5.311742   0.966635
    27  H    5.408235   3.632928   6.184775   5.969943   0.983610
    28  O    3.567793   5.231979   2.874093   3.777778   8.318075
    29  H    2.750412   4.274719   1.963651   3.208281   7.439462
    30  H    3.431630   5.466784   2.893025   3.371433   8.552103
    31  O    3.144235   5.530534   2.923807   2.719857   8.570930
    32  H    2.446514   4.939859   2.607902   1.781620   7.778936
    33  H    2.754918   4.922385   2.216955   2.740013   8.147834
    34  O    6.726167   5.010630   6.544838   7.748411   6.020136
    35  H    6.018598   4.525490   5.739958   7.052215   6.101978
    36  H    6.371790   4.598073   6.371011   7.331167   5.263159
    37  O    7.962631   7.163211   8.952463   8.003179   5.417025
    38  H    7.361305   6.733464   8.326299   7.380622   5.476926
    39  H    7.394189   6.396267   8.363652   7.534601   4.455370
                   26         27         28         29         30
    26  H    0.000000
    27  H    1.523416   0.000000
    28  O    7.382693   8.561687   0.000000
    29  H    6.494247   7.667680   0.976300   0.000000
    30  H    7.637747   8.694958   0.974965   1.477410   0.000000
    31  O    7.719269   8.482788   2.892619   2.857921   2.016940
    32  H    6.960212   7.675993   3.072753   2.855631   2.301146
    33  H    7.263635   8.084254   2.663788   2.400047   2.021526
    34  O    5.701345   5.745824   9.177073   8.240596   9.339744
    35  H    5.643795   5.849575   8.340977   7.422449   8.481208
    36  H    5.018324   4.900136   9.108903   8.151562   9.233789
    37  O    5.910271   4.481694  11.509660  10.683253  11.298906
    38  H    5.821995   4.505473  10.921821  10.101937  10.664169
    39  H    4.984073   3.528608  10.917418  10.069442  10.775155
                   31         32         33         34         35
    31  O    0.000000
    32  H    0.991945   0.000000
    33  H    0.972313   1.460882   0.000000
    34  O    8.890697   8.618746   8.076854   0.000000
    35  H    8.015822   7.799748   7.181889   0.976583   0.000000
    36  H    8.723799   8.353217   7.970730   0.967686   1.503549
    37  O   10.341550   9.519285  10.167355   7.667580   7.894998
    38  H    9.600786   8.813642   9.426383   7.200492   7.343955
    39  H    9.959919   9.125525   9.736922   7.114796   7.347750
                   36         37         38         39
    36  H    0.000000
    37  O    6.715735   0.000000
    38  H    6.271664   0.977753   0.000000
    39  H    6.149350   0.975686   1.444676   0.000000
 Stoichiometry    C10H18O11(2-)
 Framework group  C1[X(C10H18O11)]
 Deg. of freedom   111
 Full point group                 C1      NOp   1
 Largest Abelian subgroup         C1      NOp   1
 Largest concise Abelian subgroup C1      NOp   1
                         Standard orientation:                         
 ---------------------------------------------------------------------
 Center     Atomic      Atomic             Coordinates (Angstroms)
 Number     Number       Type             X           Y           Z
 ---------------------------------------------------------------------
      1          6           0       -1.644572    0.269815   -0.507225
      2          6           0       -0.719565    0.414243   -1.639160
      3          6           0       -1.398657    0.948900    0.632501
      4          6           0        0.371141    1.197645   -1.586081
      5          1           0       -0.988742   -0.131621   -2.537847
      6          6           0       -2.833876   -0.688666   -0.623403
      7          6           0       -0.009360    1.415308    0.908583
      8          1           0       -2.083977    0.881156    1.468496
      9          6           0        0.802428    1.875006   -0.321589
     10          1           0        1.019892    1.318612   -2.450008
     11          8           0       -3.116391   -1.088645   -1.780970
     12          8           0       -3.396500   -1.021775    0.467877
     13          1           0        0.029188    2.200939    1.670415
     14          8           0        0.728956    3.323368   -0.522345
     15          1           0        1.844389    1.602899   -0.113411
     16          1           0        1.260994    3.716329    0.183375
     17          6           0        0.038491   -1.882165    0.775012
     18          6           0        0.919274   -0.877433    0.845052
     19          1           0        0.332034   -2.759206    0.212860
     20          1           0       -0.934791   -1.862669    1.243902
     21          6           0        2.280359   -0.993382    0.145462
     22          8           0        0.662317    0.276782    1.586387
     23          8           0        3.063347    0.004829    0.211398
     24          8           0        2.501104   -2.086436   -0.438788
     25          8           0       -2.263080   -0.833021    3.128938
     26          1           0       -1.358018   -0.591128    2.890753
     27          1           0       -2.700010   -0.926933    2.252717
     28          8           0        5.753851   -0.721972    0.913795
     29          1           0        4.837825   -0.386836    0.955543
     30          1           0        5.706461   -1.159402    0.043757
     31          8           0        4.775040   -1.347607   -1.735310
     32          1           0        4.013515   -1.854207   -1.351395
     33          1           0        4.488919   -0.474420   -1.417391
     34          8           0       -1.877350    4.291662   -0.006484
     35          1           0       -0.981425    4.044486   -0.306382
     36          1           0       -2.308168    3.426285    0.037478
     37          8           0       -5.480129   -2.413083   -0.932856
     38          1           0       -4.794098   -2.106122   -1.558266
     39          1           0       -5.027276   -2.086610   -0.132666
 ---------------------------------------------------------------------
 Rotational constants (GHZ):      0.3506291      0.1681614      0.1446823
 Leave Link  202 at Wed Feb  6 09:17:12 2019, MaxMem=    33554432 cpu:         1.1
 (Enter /global/apps/Gaussian/09.d01/l301.exe)
 Standard basis: 6-31G(d,p) (6D, 7F)
 Ernie: Thresh=  0.10000D-02 Tol=  0.10000D-05 Strict=F.
 There are   405 symmetry adapted cartesian basis functions of A   symmetry.
 There are   405 symmetry adapted basis functions of A   symmetry.
   405 basis functions,   714 primitive gaussians,   405 cartesian basis functions
    84 alpha electrons       84 beta electrons
       nuclear repulsion energy      1876.1035528700 Hartrees.
 IExCor=  402 DFT=T Ex+Corr=B3LYP ExCW=0 ScaHFX=  0.200000
 ScaDFX=  0.800000  0.720000  1.000000  0.810000 ScalE2=  1.000000  1.000000
 IRadAn=      0 IRanWt=     -1 IRanGd=            0 ICorTp=0 IEmpDi=131
 NAtoms=   39 NActive=   39 NUniq=   39 SFac= 1.00D+00 NAtFMM=   60 NAOKFM=F Big=F
 Integral buffers will be    131072 words long.
 Raffenetti 2 integral format.
 Two-electron integral symmetry is turned on.
 R6Disp:  Grimme-D3 Dispersion energy=       -0.0508412894 Hartrees.
 Nuclear repulsion after empirical dispersion term =     1876.0527115806 Hartrees.
 Leave Link  301 at Wed Feb  6 09:17:12 2019, MaxMem=    33554432 cpu:         1.8
 (Enter /global/apps/Gaussian/09.d01/linda-exe/../l302.exel)
 NPDir=0 NMtPBC=     1 NCelOv=     1 NCel=       1 NClECP=     1 NCelD=      1
         NCelK=      1 NCelE2=     1 NClLst=     1 CellRange=     0.0.
 One-electron integrals computed using PRISM.
 PrsmSu:  requested number of processors reduced to:   8 ShMem   1 Linda.
 NBasis=   405 RedAO= T EigKep=  9.87D-04  NBF=   405
 NBsUse=   405 1.00D-06 EigRej= -1.00D+00 NBFU=   405
 Precomputing XC quadrature grid using
 IXCGrd= 4 IRadAn=           0 IRanWt=          -1 IRanGd=           0 AccXCQ= 0.00D+00.
 Generated NRdTot=       0 NPtTot=           0 NUsed=           0 NTot=          32
 NSgBfM=   394   394   394   394   398 MxSgAt=    39 MxSgA2=    39.
 Leave Link  302 at Wed Feb  6 09:17:15 2019, MaxMem=    33554432 cpu:        11.4
 (Enter /global/apps/Gaussian/09.d01/l303.exe)
 DipDrv:  MaxL=1.
 Leave Link  303 at Wed Feb  6 09:17:15 2019, MaxMem=    33554432 cpu:         2.0
 (Enter /global/apps/Gaussian/09.d01/linda-exe/../l401.exel)
 ExpMin= 1.61D-01 ExpMax= 5.48D+03 ExpMxC= 8.25D+02 IAcc=1 IRadAn=         1 AccDes= 0.00D+00
 Harris functional with IExCor=  402 and IRadAn=       1 diagonalized for initial guess.
 HarFok:  IExCor=  402 AccDes= 0.00D+00 IRadAn=         1 IDoV= 1 UseB2=F ITyADJ=14
 ICtDFT=  3500011 ScaDFX=  1.000000  1.000000  1.000000  1.000000
 FoFCou: FMM=F IPFlag=           0 FMFlag=      100000 FMFlg1=           0
         NFxFlg=           0 DoJE=T BraDBF=F KetDBF=T FulRan=T
         wScrn=  0.000000 ICntrl=     500 IOpCl=  0 I1Cent=   200000004 NGrid=           0
         NMat0=    1 NMatS0=      1 NMatT0=    0 NMatD0=    1 NMtDS0=    0 NMtDT0=    0
 Petite list used in FoFCou.
 Harris En= -1219.98363656090    
 JPrj=0 DoOrth=F DoCkMO=F.
 Leave Link  401 at Wed Feb  6 09:17:17 2019, MaxMem=    33554432 cpu:        16.6
 (Enter /global/apps/Gaussian/09.d01/linda-exe/../l502.exel)
 Closed shell SCF:
 Using DIIS extrapolation, IDIIS=  1040.
 Integral symmetry usage will be decided dynamically.
 IVT=      521776 IEndB=      521776 NGot=    33554432 MDV=    33213727
 LenX=    33213727 LenY=    33049261
 Requested convergence on RMS density matrix=1.00D-08 within 128 cycles.
 Requested convergence on MAX density matrix=1.00D-06.
 Requested convergence on             energy=1.00D-06.
 No special actions if energy rises.
 Fock matrices will be formed incrementally for  20 cycles.
 Integral accuracy reduced to 1.0D-05 until final iterations.

 Cycle   1  Pass 0  IDiag  1:
 FoFJK:  IHMeth= 1 ICntrl=       0 DoSepK=F KAlg= 0 I1Cent=   0 FoldK=F
 IRaf= 700000000 NMat=   1 IRICut=       1 DoRegI=T DoRafI=F ISym2E= 0.
 FoFCou: FMM=F IPFlag=           0 FMFlag=      100000 FMFlg1=           0
         NFxFlg=           0 DoJE=F BraDBF=F KetDBF=F FulRan=T
         wScrn=  0.000000 ICntrl=       0 IOpCl=  0 I1Cent=           0 NGrid=           0
         NMat0=    1 NMatS0=      1 NMatT0=    0 NMatD0=    1 NMtDS0=    0 NMtDT0=    0
 Symmetry not used in FoFCou.
 E= -1218.69328616346    
 DIIS: error= 4.96D-02 at cycle   1 NSaved=   1.
 NSaved= 1 IEnMin= 1 EnMin= -1218.69328616346     IErMin= 1 ErrMin= 4.96D-02
 ErrMax= 4.96D-02  0.00D+00 EMaxC= 1.00D-01 BMatC= 1.01D+00 BMatP= 1.01D+00
 IDIUse=3 WtCom= 5.04D-01 WtEn= 4.96D-01
 Coeff-Com:  0.100D+01
 Coeff-En:   0.100D+01
 Coeff:      0.100D+01
 Gap=     0.165 Goal=   None    Shift=    0.000
 GapD=    0.165 DampG=1.000 DampE=0.500 DampFc=0.5000 IDamp=-1.
 Damping current iteration by 5.00D-01
 RMSDP=4.79D-03 MaxDP=1.70D-01              OVMax= 2.11D-01

 Cycle   2  Pass 0  IDiag  1:
 RMSU=  2.38D-03    CP:  9.86D-01
 E= -1218.97730181151     Delta-E=       -0.284015648052 Rises=F Damp=T
 DIIS: error= 8.07D-03 at cycle   2 NSaved=   2.
 NSaved= 2 IEnMin= 2 EnMin= -1218.97730181151     IErMin= 2 ErrMin= 8.07D-03
 ErrMax= 8.07D-03  0.00D+00 EMaxC= 1.00D-01 BMatC= 7.55D-02 BMatP= 1.01D+00
 IDIUse=3 WtCom= 9.19D-01 WtEn= 8.07D-02
 Coeff-Com:  0.163D+00 0.837D+00
 Coeff-En:   0.261D+00 0.739D+00
 Coeff:      0.171D+00 0.829D+00
 Gap=     0.186 Goal=   None    Shift=    0.000
 RMSDP=1.10D-03 MaxDP=4.13D-02 DE=-2.84D-01 OVMax= 1.52D-01

 Cycle   3  Pass 0  IDiag  1:
 RMSU=  1.03D-03    CP:  9.82D-01  8.36D-01
 E= -1219.43711221836     Delta-E=       -0.459810406857 Rises=F Damp=F
 DIIS: error= 7.86D-03 at cycle   3 NSaved=   3.
 NSaved= 3 IEnMin= 3 EnMin= -1219.43711221836     IErMin= 3 ErrMin= 7.86D-03
 ErrMax= 7.86D-03  0.00D+00 EMaxC= 1.00D-01 BMatC= 3.63D-02 BMatP= 7.55D-02
 IDIUse=3 WtCom= 9.21D-01 WtEn= 7.86D-02
 Coeff-Com:  0.614D-01 0.423D+00 0.516D+00
 Coeff-En:   0.000D+00 0.000D+00 0.100D+01
 Coeff:      0.566D-01 0.389D+00 0.554D+00
 Gap=     0.167 Goal=   None    Shift=    0.000
 RMSDP=7.48D-04 MaxDP=3.11D-02 DE=-4.60D-01 OVMax= 6.65D-02

 Cycle   4  Pass 0  IDiag  1:
 RMSU=  4.82D-04    CP:  9.85D-01  8.61D-01  4.48D-01
 E= -1219.45957081283     Delta-E=       -0.022458594467 Rises=F Damp=F
 DIIS: error= 5.24D-03 at cycle   4 NSaved=   4.
 NSaved= 4 IEnMin= 4 EnMin= -1219.45957081283     IErMin= 4 ErrMin= 5.24D-03
 ErrMax= 5.24D-03  0.00D+00 EMaxC= 1.00D-01 BMatC= 1.38D-02 BMatP= 3.63D-02
 IDIUse=3 WtCom= 9.48D-01 WtEn= 5.24D-02
 Coeff-Com:  0.150D-01 0.109D+00 0.374D+00 0.502D+00
 Coeff-En:   0.000D+00 0.000D+00 0.286D+00 0.714D+00
 Coeff:      0.142D-01 0.103D+00 0.370D+00 0.513D+00
 Gap=     0.164 Goal=   None    Shift=    0.000
 RMSDP=3.25D-04 MaxDP=1.80D-02 DE=-2.25D-02 OVMax= 3.30D-02

 Cycle   5  Pass 0  IDiag  1:
 RMSU=  1.74D-04    CP:  9.85D-01  8.37D-01  6.03D-01  5.53D-01
 E= -1219.46961902760     Delta-E=       -0.010048214773 Rises=F Damp=F
 DIIS: error= 1.54D-03 at cycle   5 NSaved=   5.
 NSaved= 5 IEnMin= 5 EnMin= -1219.46961902760     IErMin= 5 ErrMin= 1.54D-03
 ErrMax= 1.54D-03  0.00D+00 EMaxC= 1.00D-01 BMatC= 1.97D-03 BMatP= 1.38D-02
 IDIUse=3 WtCom= 9.85D-01 WtEn= 1.54D-02
 Coeff-Com:  0.395D-02 0.178D-01 0.185D+00 0.346D+00 0.447D+00
 Coeff-En:   0.000D+00 0.000D+00 0.000D+00 0.101D+00 0.899D+00
 Coeff:      0.389D-02 0.175D-01 0.182D+00 0.343D+00 0.454D+00
 Gap=     0.163 Goal=   None    Shift=    0.000
 RMSDP=1.22D-04 MaxDP=6.39D-03 DE=-1.00D-02 OVMax= 1.15D-02

 Cycle   6  Pass 0  IDiag  1:
 RMSU=  6.01D-05    CP:  9.85D-01  8.42D-01  6.07D-01  5.86D-01  4.03D-01
 E= -1219.47114151828     Delta-E=       -0.001522490679 Rises=F Damp=F
 DIIS: error= 3.90D-04 at cycle   6 NSaved=   6.
 NSaved= 6 IEnMin= 6 EnMin= -1219.47114151828     IErMin= 6 ErrMin= 3.90D-04
 ErrMax= 3.90D-04  0.00D+00 EMaxC= 1.00D-01 BMatC= 1.63D-04 BMatP= 1.97D-03
 IDIUse=3 WtCom= 9.96D-01 WtEn= 3.90D-03
 Coeff-Com:  0.114D-02 0.197D-03 0.757D-01 0.159D+00 0.285D+00 0.479D+00
 Coeff-En:   0.000D+00 0.000D+00 0.000D+00 0.000D+00 0.340D-01 0.966D+00
 Coeff:      0.113D-02 0.196D-03 0.754D-01 0.158D+00 0.284D+00 0.481D+00
 Gap=     0.161 Goal=   None    Shift=    0.000
 RMSDP=3.19D-05 MaxDP=1.91D-03 DE=-1.52D-03 OVMax= 2.68D-03

 Cycle   7  Pass 0  IDiag  1:
 RMSU=  1.50D-05    CP:  9.85D-01  8.43D-01  6.11D-01  5.93D-01  4.75D-01
                    CP:  5.92D-01
 E= -1219.47126498100     Delta-E=       -0.000123462713 Rises=F Damp=F
 DIIS: error= 8.01D-05 at cycle   7 NSaved=   7.
 NSaved= 7 IEnMin= 7 EnMin= -1219.47126498100     IErMin= 7 ErrMin= 8.01D-05
 ErrMax= 8.01D-05  0.00D+00 EMaxC= 1.00D-01 BMatC= 8.21D-06 BMatP= 1.63D-04
 IDIUse=1 WtCom= 1.00D+00 WtEn= 0.00D+00
 Coeff-Com:  0.313D-03-0.170D-02 0.240D-01 0.538D-01 0.114D+00 0.253D+00
 Coeff-Com:  0.556D+00
 Coeff:      0.313D-03-0.170D-02 0.240D-01 0.538D-01 0.114D+00 0.253D+00
 Coeff:      0.556D+00
 Gap=     0.161 Goal=   None    Shift=    0.000
 RMSDP=8.34D-06 MaxDP=4.47D-04 DE=-1.23D-04 OVMax= 7.05D-04

 Initial convergence to 1.0D-05 achieved.  Increase integral accuracy.
 Cycle   8  Pass 1  IDiag  1:
 E= -1219.47119729345     Delta-E=        0.000067687544 Rises=F Damp=F
 DIIS: error= 3.74D-05 at cycle   1 NSaved=   1.
 NSaved= 1 IEnMin= 1 EnMin= -1219.47119729345     IErMin= 1 ErrMin= 3.74D-05
 ErrMax= 3.74D-05  0.00D+00 EMaxC= 1.00D-01 BMatC= 1.46D-06 BMatP= 1.46D-06
 IDIUse=1 WtCom= 1.00D+00 WtEn= 0.00D+00
 Coeff-Com:  0.100D+01
 Coeff:      0.100D+01
 Gap=     0.161 Goal=   None    Shift=    0.000
 RMSDP=8.34D-06 MaxDP=4.47D-04 DE= 6.77D-05 OVMax= 5.95D-04

 Cycle   9  Pass 1  IDiag  1:
 RMSU=  1.44D-05    CP:  1.00D+00
 E= -1219.47119630563     Delta-E=        0.000000987819 Rises=F Damp=F
 DIIS: error= 7.76D-05 at cycle   2 NSaved=   2.
 NSaved= 2 IEnMin= 1 EnMin= -1219.47119729345     IErMin= 1 ErrMin= 3.74D-05
 ErrMax= 7.76D-05  0.00D+00 EMaxC= 1.00D-01 BMatC= 2.98D-06 BMatP= 1.46D-06
 IDIUse=1 WtCom= 1.00D+00 WtEn= 0.00D+00
 Coeff-Com:  0.604D+00 0.396D+00
 Coeff:      0.604D+00 0.396D+00
 Gap=     0.161 Goal=   None    Shift=    0.000
 RMSDP=4.94D-06 MaxDP=2.54D-04 DE= 9.88D-07 OVMax= 4.58D-04

 Cycle  10  Pass 1  IDiag  1:
 RMSU=  4.52D-06    CP:  1.00D+00  8.63D-01
 E= -1219.47119870653     Delta-E=       -0.000002400895 Rises=F Damp=F
 DIIS: error= 2.95D-05 at cycle   3 NSaved=   3.
 NSaved= 3 IEnMin= 3 EnMin= -1219.47119870653     IErMin= 3 ErrMin= 2.95D-05
 ErrMax= 2.95D-05  0.00D+00 EMaxC= 1.00D-01 BMatC= 2.34D-07 BMatP= 1.46D-06
 IDIUse=1 WtCom= 1.00D+00 WtEn= 0.00D+00
 Coeff-Com:  0.852D-01 0.218D+00 0.696D+00
 Coeff:      0.852D-01 0.218D+00 0.696D+00
 Gap=     0.161 Goal=   None    Shift=    0.000
 RMSDP=1.54D-06 MaxDP=9.57D-05 DE=-2.40D-06 OVMax= 1.62D-04

 Cycle  11  Pass 1  IDiag  1:
 RMSU=  1.25D-06    CP:  1.00D+00  8.93D-01  8.27D-01
 E= -1219.47119883384     Delta-E=       -0.000000127312 Rises=F Damp=F
 DIIS: error= 1.54D-05 at cycle   4 NSaved=   4.
 NSaved= 4 IEnMin= 4 EnMin= -1219.47119883384     IErMin= 4 ErrMin= 1.54D-05
 ErrMax= 1.54D-05  0.00D+00 EMaxC= 1.00D-01 BMatC= 8.03D-08 BMatP= 2.34D-07
 IDIUse=1 WtCom= 1.00D+00 WtEn= 0.00D+00
 Coeff-Com: -0.375D-02 0.109D+00 0.477D+00 0.418D+00
 Coeff:     -0.375D-02 0.109D+00 0.477D+00 0.418D+00
 Gap=     0.161 Goal=   None    Shift=    0.000
 RMSDP=7.04D-07 MaxDP=4.52D-05 DE=-1.27D-07 OVMax= 7.49D-05

 Cycle  12  Pass 1  IDiag  1:
 RMSU=  3.54D-07    CP:  1.00D+00  9.00D-01  8.41D-01  5.23D-01
 E= -1219.47119889595     Delta-E=       -0.000000062107 Rises=F Damp=F
 DIIS: error= 2.50D-06 at cycle   5 NSaved=   5.
 NSaved= 5 IEnMin= 5 EnMin= -1219.47119889595     IErMin= 5 ErrMin= 2.50D-06
 ErrMax= 2.50D-06  0.00D+00 EMaxC= 1.00D-01 BMatC= 3.96D-09 BMatP= 8.03D-08
 IDIUse=1 WtCom= 1.00D+00 WtEn= 0.00D+00
 Coeff-Com: -0.750D-02 0.508D-01 0.241D+00 0.254D+00 0.461D+00
 Coeff:     -0.750D-02 0.508D-01 0.241D+00 0.254D+00 0.461D+00
 Gap=     0.161 Goal=   None    Shift=    0.000
 RMSDP=1.82D-07 MaxDP=7.09D-06 DE=-6.21D-08 OVMax= 1.69D-05

 Cycle  13  Pass 1  IDiag  1:
 RMSU=  1.03D-07    CP:  1.00D+00  9.01D-01  8.42D-01  5.25D-01  5.82D-01
 E= -1219.47119889909     Delta-E=       -0.000000003143 Rises=F Damp=F
 DIIS: error= 4.12D-07 at cycle   6 NSaved=   6.
 NSaved= 6 IEnMin= 6 EnMin= -1219.47119889909     IErMin= 6 ErrMin= 4.12D-07
 ErrMax= 4.12D-07  0.00D+00 EMaxC= 1.00D-01 BMatC= 2.34D-10 BMatP= 3.96D-09
 IDIUse=1 WtCom= 1.00D+00 WtEn= 0.00D+00
 Coeff-Com: -0.378D-02 0.190D-01 0.947D-01 0.106D+00 0.253D+00 0.531D+00
 Coeff:     -0.378D-02 0.190D-01 0.947D-01 0.106D+00 0.253D+00 0.531D+00
 Gap=     0.161 Goal=   None    Shift=    0.000
 RMSDP=4.91D-08 MaxDP=2.44D-06 DE=-3.14D-09 OVMax= 4.05D-06

 Cycle  14  Pass 1  IDiag  1:
 RMSU=  3.69D-08    CP:  1.00D+00  9.02D-01  8.42D-01  5.26D-01  6.18D-01
                    CP:  7.16D-01
 E= -1219.47119889935     Delta-E=       -0.000000000257 Rises=F Damp=F
 DIIS: error= 2.01D-07 at cycle   7 NSaved=   7.
 NSaved= 7 IEnMin= 7 EnMin= -1219.47119889935     IErMin= 7 ErrMin= 2.01D-07
 ErrMax= 2.01D-07  0.00D+00 EMaxC= 1.00D-01 BMatC= 3.08D-11 BMatP= 2.34D-10
 IDIUse=1 WtCom= 1.00D+00 WtEn= 0.00D+00
 Coeff-Com: -0.130D-02 0.488D-02 0.265D-01 0.307D-01 0.870D-01 0.309D+00
 Coeff-Com:  0.544D+00
 Coeff:     -0.130D-02 0.488D-02 0.265D-01 0.307D-01 0.870D-01 0.309D+00
 Coeff:      0.544D+00
 Gap=     0.161 Goal=   None    Shift=    0.000
 RMSDP=1.87D-08 MaxDP=9.00D-07 DE=-2.57D-10 OVMax= 1.87D-06

 Cycle  15  Pass 1  IDiag  1:
 RMSU=  1.27D-08    CP:  1.00D+00  9.02D-01  8.43D-01  5.27D-01  6.21D-01
                    CP:  7.81D-01  6.84D-01
 E= -1219.47119889935     Delta-E=       -0.000000000003 Rises=F Damp=F
 DIIS: error= 7.78D-08 at cycle   8 NSaved=   8.
 NSaved= 8 IEnMin= 8 EnMin= -1219.47119889935     IErMin= 8 ErrMin= 7.78D-08
 ErrMax= 7.78D-08  0.00D+00 EMaxC= 1.00D-01 BMatC= 4.97D-12 BMatP= 3.08D-11
 IDIUse=1 WtCom= 1.00D+00 WtEn= 0.00D+00
 Coeff-Com: -0.192D-03-0.161D-03 0.879D-03 0.133D-02 0.112D-01 0.107D+00
 Coeff-Com:  0.334D+00 0.546D+00
 Coeff:     -0.192D-03-0.161D-03 0.879D-03 0.133D-02 0.112D-01 0.107D+00
 Coeff:      0.334D+00 0.546D+00
 Gap=     0.161 Goal=   None    Shift=    0.000
 RMSDP=6.96D-09 MaxDP=4.19D-07 DE=-2.73D-12 OVMax= 6.35D-07

 SCF Done:  E(RB3LYP) =  -1219.47119890     A.U. after   15 cycles
            NFock= 15  Conv=0.70D-08     -V/T= 2.0085
 KE= 1.209181793943D+03 PE=-6.654917356216D+03 EE= 2.350211651793D+03
 Leave Link  502 at Wed Feb  6 09:17:30 2019, MaxMem=    33554432 cpu:       244.8
 (Enter /global/apps/Gaussian/09.d01/l601.exe)
 Copying SCF densities to generalized density rwf, IOpCl= 0 IROHF=0.

 **********************************************************************

            Population analysis using the SCF density.

 **********************************************************************

 Orbital symmetries:
       Occupied  (A) (A) (A) (A) (A) (A) (A) (A) (A) (A) (A) (A)
                 (A) (A) (A) (A) (A) (A) (A) (A) (A) (A) (A) (A)
                 (A) (A) (A) (A) (A) (A) (A) (A) (A) (A) (A) (A)
                 (A) (A) (A) (A) (A) (A) (A) (A) (A) (A) (A) (A)
                 (A) (A) (A) (A) (A) (A) (A) (A) (A) (A) (A) (A)
                 (A) (A) (A) (A) (A) (A) (A) (A) (A) (A) (A) (A)
                 (A) (A) (A) (A) (A) (A) (A) (A) (A) (A) (A) (A)
       Virtual   (A) (A) (A) (A) (A) (A) (A) (A) (A) (A) (A) (A)
                 (A) (A) (A) (A) (A) (A) (A) (A) (A) (A) (A) (A)
                 (A) (A) (A) (A) (A) (A) (A) (A) (A) (A) (A) (A)
                 (A) (A) (A) (A) (A) (A) (A) (A) (A) (A) (A) (A)
                 (A) (A) (A) (A) (A) (A) (A) (A) (A) (A) (A) (A)
                 (A) (A) (A) (A) (A) (A) (A) (A) (A) (A) (A) (A)
                 (A) (A) (A) (A) (A) (A) (A) (A) (A) (A) (A) (A)
                 (A) (A) (A) (A) (A) (A) (A) (A) (A) (A) (A) (A)
                 (A) (A) (A) (A) (A) (A) (A) (A) (A) (A) (A) (A)
                 (A) (A) (A) (A) (A) (A) (A) (A) (A) (A) (A) (A)
                 (A) (A) (A) (A) (A) (A) (A) (A) (A) (A) (A) (A)
                 (A) (A) (A) (A) (A) (A) (A) (A) (A) (A) (A) (A)
                 (A) (A) (A) (A) (A) (A) (A) (A) (A) (A) (A) (A)
                 (A) (A) (A) (A) (A) (A) (A) (A) (A) (A) (A) (A)
                 (A) (A) (A) (A) (A) (A) (A) (A) (A) (A) (A) (A)
                 (A) (A) (A) (A) (A) (A) (A) (A) (A) (A) (A) (A)
                 (A) (A) (A) (A) (A) (A) (A) (A) (A) (A) (A) (A)
                 (A) (A) (A) (A) (A) (A) (A) (A) (A) (A) (A) (A)
                 (A) (A) (A) (A) (A) (A) (A) (A) (A) (A) (A) (A)
                 (A) (A) (A) (A) (A) (A) (A) (A) (A) (A) (A) (A)
                 (A) (A) (A) (A) (A) (A) (A) (A) (A) (A) (A) (A)
                 (A) (A) (A) (A) (A) (A) (A) (A) (A) (A) (A) (A)
                 (A) (A) (A) (A) (A) (A) (A) (A) (A) (A) (A) (A)
                 (A) (A) (A) (A) (A) (A) (A) (A) (A) (A) (A) (A)
                 (A) (A) (A) (A) (A) (A) (A) (A) (A) (A) (A) (A)
                 (A) (A) (A) (A) (A) (A) (A) (A) (A) (A) (A) (A)
                 (A) (A) (A) (A) (A) (A) (A) (A) (A)
 The electronic state is 1-A.
 Alpha  occ. eigenvalues --  -18.98512 -18.96150 -18.93226 -18.91173 -18.90207
 Alpha  occ. eigenvalues --  -18.88685 -18.87683 -18.87507 -18.87407 -18.87391
 Alpha  occ. eigenvalues --  -18.87256 -10.05847 -10.05698 -10.05204 -10.04382
 Alpha  occ. eigenvalues --  -10.02086  -9.99105  -9.99021  -9.98878  -9.98039
 Alpha  occ. eigenvalues --   -9.96250  -0.84804  -0.83237  -0.80346  -0.80226
 Alpha  occ. eigenvalues --   -0.79104  -0.76847  -0.76049  -0.74448  -0.73367
 Alpha  occ. eigenvalues --   -0.71678  -0.71464  -0.63527  -0.56205  -0.54878
 Alpha  occ. eigenvalues --   -0.51694  -0.43596  -0.40694  -0.38538  -0.34313
 Alpha  occ. eigenvalues --   -0.33436  -0.31443  -0.30154  -0.29434  -0.28415
 Alpha  occ. eigenvalues --   -0.26727  -0.26367  -0.25990  -0.24763  -0.24341
 Alpha  occ. eigenvalues --   -0.23849  -0.23301  -0.23090  -0.22370  -0.20103
 Alpha  occ. eigenvalues --   -0.19751  -0.18676  -0.18200  -0.17788  -0.17525
 Alpha  occ. eigenvalues --   -0.17040  -0.16258  -0.16020  -0.15689  -0.14594
 Alpha  occ. eigenvalues --   -0.13863  -0.13590  -0.12918  -0.11789  -0.09849
 Alpha  occ. eigenvalues --   -0.09304  -0.07927  -0.07113  -0.06390  -0.05075
 Alpha  occ. eigenvalues --   -0.03879  -0.03820  -0.03130  -0.02943  -0.02632
 Alpha  occ. eigenvalues --   -0.02188  -0.02089  -0.01374  -0.01238
 Alpha virt. eigenvalues --    0.14833   0.20112   0.23074   0.25631   0.28965
 Alpha virt. eigenvalues --    0.30536   0.30940   0.32349   0.32711   0.33607
 Alpha virt. eigenvalues --    0.34518   0.35714   0.37128   0.37979   0.38452
 Alpha virt. eigenvalues --    0.38967   0.39694   0.39848   0.40738   0.41674
 Alpha virt. eigenvalues --    0.42512   0.43319   0.44202   0.44771   0.45703
 Alpha virt. eigenvalues --    0.46598   0.47084   0.48306   0.50768   0.52393
 Alpha virt. eigenvalues --    0.55020   0.56011   0.56130   0.58660   0.59551
 Alpha virt. eigenvalues --    0.62941   0.65173   0.66774   0.68895   0.69035
 Alpha virt. eigenvalues --    0.73960   0.74101   0.76082   0.77265   0.77681
 Alpha virt. eigenvalues --    0.80016   0.80520   0.82031   0.83030   0.83827
 Alpha virt. eigenvalues --    0.84139   0.85258   0.85785   0.87010   0.87384
 Alpha virt. eigenvalues --    0.89700   0.89852   0.91596   0.92663   0.93250
 Alpha virt. eigenvalues --    0.94361   0.94797   0.95544   0.97963   0.98144
 Alpha virt. eigenvalues --    0.98847   0.99074   0.99226   1.00338   1.00450
 Alpha virt. eigenvalues --    1.01290   1.01578   1.02600   1.03182   1.03375
 Alpha virt. eigenvalues --    1.03871   1.04318   1.05726   1.06042   1.06684
 Alpha virt. eigenvalues --    1.07655   1.08814   1.09293   1.10584   1.11214
 Alpha virt. eigenvalues --    1.12932   1.13281   1.13560   1.13666   1.15580
 Alpha virt. eigenvalues --    1.15732   1.17480   1.18043   1.18866   1.19444
 Alpha virt. eigenvalues --    1.20209   1.20893   1.22811   1.23596   1.23979
 Alpha virt. eigenvalues --    1.25292   1.26281   1.26529   1.27082   1.28534
 Alpha virt. eigenvalues --    1.29140   1.30608   1.31711   1.32900   1.34516
 Alpha virt. eigenvalues --    1.35320   1.36131   1.37104   1.37240   1.39739
 Alpha virt. eigenvalues --    1.40874   1.42615   1.44026   1.45092   1.46260
 Alpha virt. eigenvalues --    1.47661   1.47891   1.49513   1.50496   1.51525
 Alpha virt. eigenvalues --    1.54158   1.55025   1.55195   1.55619   1.56952
 Alpha virt. eigenvalues --    1.57551   1.58659   1.59929   1.60314   1.61175
 Alpha virt. eigenvalues --    1.61980   1.65490   1.67690   1.68489   1.69164
 Alpha virt. eigenvalues --    1.69845   1.70850   1.72710   1.73224   1.74512
 Alpha virt. eigenvalues --    1.75327   1.76025   1.76421   1.78035   1.79412
 Alpha virt. eigenvalues --    1.79978   1.81014   1.81649   1.82230   1.82641
 Alpha virt. eigenvalues --    1.83755   1.84342   1.84672   1.85884   1.87434
 Alpha virt. eigenvalues --    1.87886   1.88601   1.89769   1.90407   1.91122
 Alpha virt. eigenvalues --    1.92183   1.92886   1.96509   1.97352   1.98559
 Alpha virt. eigenvalues --    1.99238   2.00657   2.01266   2.03629   2.04246
 Alpha virt. eigenvalues --    2.07137   2.08184   2.08749   2.09210   2.10678
 Alpha virt. eigenvalues --    2.11624   2.12716   2.13978   2.15103   2.16406
 Alpha virt. eigenvalues --    2.16820   2.17427   2.18353   2.19871   2.20668
 Alpha virt. eigenvalues --    2.21148   2.24023   2.27344   2.27414   2.29431
 Alpha virt. eigenvalues --    2.30433   2.31806   2.33123   2.33437   2.34475
 Alpha virt. eigenvalues --    2.34792   2.39527   2.41958   2.44034   2.45574
 Alpha virt. eigenvalues --    2.47800   2.49522   2.51062   2.51250   2.51891
 Alpha virt. eigenvalues --    2.52639   2.52946   2.54371   2.54939   2.55392
 Alpha virt. eigenvalues --    2.56549   2.58865   2.59200   2.60477   2.62169
 Alpha virt. eigenvalues --    2.63266   2.64603   2.65228   2.65966   2.66375
 Alpha virt. eigenvalues --    2.67104   2.68435   2.70449   2.70869   2.71590
 Alpha virt. eigenvalues --    2.72046   2.73318   2.73858   2.74496   2.74772
 Alpha virt. eigenvalues --    2.77883   2.79296   2.79417   2.80509   2.81506
 Alpha virt. eigenvalues --    2.82345   2.84117   2.84383   2.85187   2.85693
 Alpha virt. eigenvalues --    2.86499   2.86743   2.87673   2.88827   2.91070
 Alpha virt. eigenvalues --    2.91616   2.91979   2.93291   2.93750   2.94556
 Alpha virt. eigenvalues --    2.96045   2.97156   2.97303   2.97562   2.99790
 Alpha virt. eigenvalues --    3.00960   3.05583   3.06688   3.11106   3.11233
 Alpha virt. eigenvalues --    3.16488   3.16907   3.17860   3.19458   3.20962
 Alpha virt. eigenvalues --    3.22602   3.24584   3.25451   3.25816   3.26368
 Alpha virt. eigenvalues --    3.27078   3.29592   3.31455   3.35343   3.39729
 Alpha virt. eigenvalues --    3.42011   3.47469   3.50090   3.57427   3.58478
 Alpha virt. eigenvalues --    3.59271   3.60904   3.62368   3.63515   3.64089
 Alpha virt. eigenvalues --    3.65055   3.66831   3.69129   3.80216   3.82828
 Alpha virt. eigenvalues --    3.84155   3.84756   3.85591   3.86423   3.89042
 Alpha virt. eigenvalues --    3.97088   3.98024   3.99654   4.05946   4.09826
 Alpha virt. eigenvalues --    4.25217   4.26085   4.31488   4.36746   4.40502
 Alpha virt. eigenvalues --    4.46900   4.54514   4.60559   4.62424   4.74122
 Alpha virt. eigenvalues --    4.74760   4.80480   4.82600   4.92852   4.99265
 Alpha virt. eigenvalues --    5.02937
          Condensed to atoms (all electrons):
               1          2          3          4          5          6
     1  C    5.061139   0.386989   0.489358  -0.018533  -0.045599   0.322946
     2  C    0.386989   4.896111  -0.061220   0.562886   0.358494  -0.028965
     3  C    0.489358  -0.061220   5.336963  -0.045567   0.009780  -0.043492
     4  C   -0.018533   0.562886  -0.045567   5.011834  -0.054033   0.005788
     5  H   -0.045599   0.358494   0.009780  -0.054033   0.635052  -0.011147
     6  C    0.322946  -0.028965  -0.043492   0.005788  -0.011147   4.361367
     7  C    0.011956  -0.026545   0.271957  -0.026430  -0.000466   0.004563
     8  H   -0.039916   0.007452   0.335191  -0.000235  -0.000117  -0.009622
     9  C   -0.041217  -0.016266  -0.016671   0.346489   0.006016  -0.000066
    10  H    0.004558  -0.033649   0.000163   0.362592  -0.007831  -0.000091
    11  O   -0.103248   0.001503   0.005000   0.000950   0.022204   0.444249
    12  O   -0.098518   0.003881   0.002030  -0.000064   0.000318   0.388823
    13  H    0.004805   0.000429  -0.039693   0.005286   0.000012  -0.000116
    14  O    0.000205  -0.000401   0.003000  -0.041632  -0.000053   0.000000
    15  H    0.000083   0.001840   0.005506  -0.036207  -0.000143   0.000006
    16  H   -0.000088  -0.000017  -0.000277   0.007055   0.000007   0.000000
    17  C    0.002439   0.001207   0.003074  -0.002785   0.000195   0.000517
    18  C    0.000632  -0.000842  -0.012209   0.000452  -0.000034  -0.000126
    19  H    0.000301  -0.000119   0.000183  -0.000054  -0.000006   0.000080
    20  H   -0.002483  -0.000324  -0.001495   0.000055  -0.000008  -0.000133
    21  C   -0.000743   0.001078  -0.000426   0.002374   0.000060  -0.000012
    22  O   -0.005222  -0.002823  -0.065928   0.004175  -0.000022   0.000002
    23  O   -0.000008   0.000062   0.000077   0.000905   0.000001   0.000000
    24  O    0.000002  -0.000082   0.000008  -0.000253  -0.000003   0.000000
    25  O   -0.000398   0.000003  -0.009868  -0.000001   0.000000  -0.000221
    26  H   -0.001135   0.000026   0.002279  -0.000015   0.000000   0.000068
    27  H   -0.002557  -0.000110   0.001777  -0.000001  -0.000005   0.000056
    28  O    0.000000   0.000000   0.000000   0.000000   0.000000   0.000000
    29  H    0.000000   0.000000   0.000000   0.000001   0.000000   0.000000
    30  H    0.000000   0.000000   0.000000   0.000000   0.000000   0.000000
    31  O    0.000000   0.000000   0.000000  -0.000004   0.000000   0.000000
    32  H    0.000000  -0.000002   0.000000   0.000001   0.000000   0.000000
    33  H    0.000000  -0.000002   0.000000   0.000019   0.000000   0.000000
    34  O   -0.000741  -0.000047  -0.001109   0.000098   0.000001  -0.000004
    35  H   -0.000188   0.000655   0.001528  -0.000101  -0.000002  -0.000005
    36  H    0.003175   0.000035   0.014897  -0.000638  -0.000003  -0.000022
    37  O   -0.000018   0.000002   0.000004   0.000000   0.000003   0.001324
    38  H    0.001192  -0.000028  -0.000028   0.000000  -0.000049   0.003285
    39  H    0.001019  -0.000013  -0.000032   0.000000  -0.000003   0.003471
               7          8          9         10         11         12
     1  C    0.011956  -0.039916  -0.041217   0.004558  -0.103248  -0.098518
     2  C   -0.026545   0.007452  -0.016266  -0.033649   0.001503   0.003881
     3  C    0.271957   0.335191  -0.016671   0.000163   0.005000   0.002030
     4  C   -0.026430  -0.000235   0.346489   0.362592   0.000950  -0.000064
     5  H   -0.000466  -0.000117   0.006016  -0.007831   0.022204   0.000318
     6  C    0.004563  -0.009622  -0.000066  -0.000091   0.444249   0.388823
     7  C    4.977725  -0.049915   0.281288   0.004951  -0.000076   0.000237
     8  H   -0.049915   0.634399   0.004197   0.000014   0.000164   0.009609
     9  C    0.281288   0.004197   5.051047  -0.050603  -0.000015  -0.000008
    10  H    0.004951   0.000014  -0.050603   0.660839   0.000002   0.000000
    11  O   -0.000076   0.000164  -0.000015   0.000002   8.287195  -0.085225
    12  O    0.000237   0.009609  -0.000008   0.000000  -0.085225   8.331360
    13  H    0.359553  -0.005866  -0.050859  -0.000185   0.000001   0.000002
    14  O   -0.032823  -0.000038   0.144313   0.002736   0.000000   0.000000
    15  H   -0.053472  -0.000128   0.350873  -0.005216   0.000000   0.000000
    16  H   -0.002240   0.000004  -0.022315  -0.000268   0.000000   0.000000
    17  C   -0.007476   0.002236   0.000025  -0.000014   0.000003  -0.004016
    18  C   -0.028376  -0.001047  -0.003642  -0.000051  -0.000003  -0.000008
    19  H   -0.000034  -0.000002   0.000022  -0.000001   0.000014  -0.000037
    20  H   -0.000053  -0.003474  -0.000027   0.000001  -0.000495   0.010251
    21  C   -0.002466  -0.000022   0.002380   0.000264   0.000000  -0.000001
    22  O    0.206721   0.000422  -0.033985  -0.000056   0.000000   0.000020
    23  O   -0.000652   0.000001  -0.026104   0.000130   0.000000   0.000000
    24  O    0.000045   0.000000  -0.000316  -0.000027   0.000000   0.000000
    25  O   -0.000542   0.023629  -0.000001   0.000000  -0.000004  -0.014702
    26  H   -0.000496   0.002766   0.000174   0.000000   0.000002   0.000264
    27  H    0.000172   0.000537  -0.000005   0.000000   0.000311   0.057793
    28  O    0.000000   0.000000   0.000000   0.000000   0.000000   0.000000
    29  H    0.000000   0.000000   0.000015   0.000000   0.000000   0.000000
    30  H    0.000000   0.000000   0.000000   0.000000   0.000000   0.000000
    31  O    0.000000   0.000000  -0.000001   0.000002   0.000000   0.000000
    32  H   -0.000001   0.000000  -0.000001   0.000007   0.000000   0.000000
    33  H    0.000001   0.000000   0.000004   0.000052   0.000000   0.000000
    34  O    0.000234  -0.000108   0.000726   0.000004   0.000000   0.000000
    35  H   -0.001427  -0.000047  -0.003858  -0.000062   0.000000   0.000000
    36  H    0.000487   0.000395   0.000322  -0.000001  -0.000005  -0.000007
    37  O    0.000000   0.000003   0.000000   0.000000  -0.016671  -0.013900
    38  H    0.000000  -0.000005   0.000000   0.000000   0.051309  -0.000463
    39  H    0.000000  -0.000030   0.000000   0.000000   0.000188   0.044584
              13         14         15         16         17         18
     1  C    0.004805   0.000205   0.000083  -0.000088   0.002439   0.000632
     2  C    0.000429  -0.000401   0.001840  -0.000017   0.001207  -0.000842
     3  C   -0.039693   0.003000   0.005506  -0.000277   0.003074  -0.012209
     4  C    0.005286  -0.041632  -0.036207   0.007055  -0.002785   0.000452
     5  H    0.000012  -0.000053  -0.000143   0.000007   0.000195  -0.000034
     6  C   -0.000116   0.000000   0.000006   0.000000   0.000517  -0.000126
     7  C    0.359553  -0.032823  -0.053472  -0.002240  -0.007476  -0.028376
     8  H   -0.005866  -0.000038  -0.000128   0.000004   0.002236  -0.001047
     9  C   -0.050859   0.144313   0.350873  -0.022315   0.000025  -0.003642
    10  H   -0.000185   0.002736  -0.005216  -0.000268  -0.000014  -0.000051
    11  O    0.000001   0.000000   0.000000   0.000000   0.000003  -0.000003
    12  O    0.000002   0.000000   0.000000   0.000000  -0.004016  -0.000008
    13  H    0.693257   0.000052  -0.001506   0.005071  -0.000241   0.003170
    14  O    0.000052   8.206270  -0.022617   0.266814  -0.000004   0.000014
    15  H   -0.001506  -0.022617   0.562448  -0.005860   0.000368  -0.002614
    16  H    0.005071   0.266814  -0.005860   0.458003   0.000001  -0.000003
    17  C   -0.000241  -0.000004   0.000368   0.000001   5.172227   0.560982
    18  C    0.003170   0.000014  -0.002614  -0.000003   0.560982   4.864908
    19  H    0.000010   0.000000  -0.000030   0.000000   0.350646  -0.017932
    20  H   -0.000057   0.000000  -0.000010   0.000000   0.322255  -0.025172
    21  C    0.000048  -0.000003  -0.002799   0.000002  -0.060183   0.329249
    22  O   -0.037335   0.001273   0.000187  -0.000057  -0.069500   0.229415
    23  O   -0.000025   0.000178   0.048654   0.000037   0.005418  -0.083078
    24  O    0.000001   0.000000   0.000420   0.000000  -0.002152  -0.097126
    25  O    0.000013   0.000000   0.000000   0.000000  -0.006184  -0.000323
    26  H   -0.000276  -0.000001   0.000001   0.000000  -0.000915  -0.000494
    27  H    0.000002   0.000000   0.000000   0.000000  -0.001701   0.000037
    28  O    0.000000   0.000000   0.000007   0.000000   0.000001  -0.000009
    29  H    0.000000   0.000000  -0.000007   0.000000  -0.000022   0.000438
    30  H    0.000000   0.000000  -0.000001   0.000000  -0.000001   0.000017
    31  O    0.000000   0.000000   0.000004   0.000000   0.000007  -0.000046
    32  H    0.000000   0.000000  -0.000005   0.000000  -0.000084   0.001645
    33  H    0.000000   0.000000   0.000070   0.000000  -0.000022   0.000592
    34  O    0.002066  -0.018956  -0.000027   0.001569   0.000000   0.000000
    35  H   -0.000195   0.057295   0.000554  -0.004540   0.000000   0.000003
    36  H   -0.000463   0.001429   0.000010  -0.000145   0.000001   0.000007
    37  O    0.000000   0.000000   0.000000   0.000000   0.000000   0.000000
    38  H    0.000000   0.000000   0.000000   0.000000   0.000000   0.000000
    39  H    0.000000   0.000000   0.000000   0.000000   0.000003   0.000000
              19         20         21         22         23         24
     1  C    0.000301  -0.002483  -0.000743  -0.005222  -0.000008   0.000002
     2  C   -0.000119  -0.000324   0.001078  -0.002823   0.000062  -0.000082
     3  C    0.000183  -0.001495  -0.000426  -0.065928   0.000077   0.000008
     4  C   -0.000054   0.000055   0.002374   0.004175   0.000905  -0.000253
     5  H   -0.000006  -0.000008   0.000060  -0.000022   0.000001  -0.000003
     6  C    0.000080  -0.000133  -0.000012   0.000002   0.000000   0.000000
[...]
 0.00073839,-0.00064968,0.00027362,-0.00025527,0.00013354,-0.00065417,-
 0.00053434,-0.00000484,-0.00165669,0.00026456,0.00002179,0.00004913,-0
 .00094831,-0.00023171,-0.00007725,0.00062652,-0.00060156,0.00110799,0.
 00024249,0.00016992,0.00003006,-0.00754777,-0.00835753,-0.00150384,-0.
 00013749,-0.00000903,0.00037396,0.00068041,-0.00006775,0.00018931,0.00
 047593,0.00018959,-0.00011707,-0.00080768,-0.00014932,0.00060901,-0.00
 333276,0.00383059,0.00033143,0.00125772,0.00163817,0.00026586,0.004926
 00,-0.00140992,0.00405344,-0.00001948,0.00015575,-0.00013313,0.0002264
 8,-0.00061274,-0.00008788,-0.00000584,0.00002949,0.00001062,-0.0000393
 5,-0.00002627,0.00006189,-0.00035586,-0.00202394,0.00046553,-0.0000640
 2,0.00075721,-0.00032216,-0.00140846,0.00247761,-0.00160067,-0.0006341
 3,0.00125593,0.00004298,0.00024708,0.00020243,-0.00013244,-0.00007256,
 -0.00005155,0.00007774,-0.00010795,-0.00008141,0.00003968,-0.00033015,
 -0.00025705,-0.00017467,0.00032844,0.00022875,0.00021375,0.00014693,0.
 00006547,0.00006482,-0.00049745,-0.00008056,0.00014643,0.00042764,0.00
 003214,-0.00017692,0.00029589,0.00003305,-0.00011526,0.21722165,-0.213
 13374,-0.06642986,-0.18915375,0.20545832,-0.00034899,-0.00027890,-0.00
 007533,0.00005969,-0.00026433,0.00016072,0.00042568,0.00001822,-0.0006
 3000,-0.00011318,-0.00036783,0.00010127,-0.00001210,0.00005086,0.00003
 341,0.00001318,0.00007654,0.00009495,-0.00024037,0.00178995,0.00138312
 ,-0.00003815,0.00004780,0.00000149,-0.00221138,-0.00181035,0.00065644,
 -0.00014458,-0.00011705,-0.00068523,-0.00000295,0.00003240,-0.00016076
 ,0.00006703,0.00007378,-0.00010405,0.00111251,0.00069271,-0.00132892,-
 0.00190504,0.00031165,-0.00748945,0.00055864,0.00050867,-0.00003665,0.
 00199962,0.00159094,0.00281237,0.00008689,-0.00012492,-0.00012338,-0.0
 0022656,0.00039653,0.00020528,-0.00002464,-0.00004900,0.00000115,0.000
 01048,0.00000424,0.00003138,-0.00044570,-0.00068163,0.00022891,0.00034
 561,-0.00073948,-0.00051808,-0.00056719,0.00098456,-0.00101439,0.00007
 624,0.00033358,-0.00004931,0.00000083,0.00003666,-0.00005171,0.0000079
 0,-0.00000319,0.00001565,-0.00000509,-0.00002828,0.00003757,-0.0000087
 8,-0.00010420,-0.00015689,0.00002071,0.00011693,0.00013559,0.00002969,
 0.00002825,0.00006720,-0.00006353,-0.00001020,-0.00009118,0.00002932,-
 0.00001008,0.00002261,0.00005332,-0.00000601,0.00004350,0.07086665,-0.
 07609255,-0.03997962,-0.05062610,0.06425953,0.04253627,-0.00017343,-0.
 00017463,0.00035975,-0.00102841,-0.00013688,-0.00015654,-0.00005336,-0
 .00015917,0.00006795,0.00044757,-0.00029423,-0.00029997,-0.00005828,-0
 .00016702,-0.00022611,0.00041307,-0.00001767,0.00012801,-0.00020783,0.
 00061220,0.00038590,-0.00002741,-0.00007455,-0.00003940,0.00026431,0.0
 0252107,0.00041582,-0.00000017,0.00004135,0.00053821,-0.00028114,0.000
 16704,-0.00009155,-0.00017319,0.00000573,-0.00000952,0.00043435,-0.000
 12240,-0.00037200,0.00147801,-0.00114902,0.00037968,-0.00021628,-0.000
 04313,-0.00025791,-0.00061853,0.00000287,-0.00055966,0.00000632,-0.000
 06804,-0.00001092,-0.00009048,0.00019264,0.00010280,-0.00000373,-0.000
 01715,-0.00001053,0.00001748,0.00000954,-0.00000280,0.00004947,0.00030
 707,-0.00005625,0.00018784,-0.00047016,-0.00002784,0.00021258,-0.00039
 547,0.00023403,0.00012120,-0.00021291,-0.00001339,-0.00008669,-0.00003
 610,0.00001913,0.00002703,0.00000801,-0.00001562,0.00005428,-0.0000029
 8,0.00000678,0.00005540,0.00001553,0.00003496,-0.00004733,-0.00001946,
 -0.00003374,-0.00002402,-0.00000201,-0.00001044,0.00007368,-0.00000209
 ,-0.00002506,-0.00006418,0.00000028,0.00002809,-0.00004090,0.00000375,
 0.00001666,-0.32566375,-0.14629152,-0.13442268,-0.03536840,-0.02211811
 ,-0.01877106,0.36035848,-0.00015755,-0.00011537,-0.00020548,-0.0022972
 3,-0.00101168,0.00126957,0.00027911,0.00022252,0.00001425,0.00222469,0
 .00155786,-0.00046997,0.00000341,0.00007358,0.00012272,-0.00113456,-0.
 00034432,-0.00001811,0.00058251,-0.00139491,0.00024427,-0.00004053,-0.
 00002448,-0.00003627,0.00196947,-0.00139211,-0.00025647,-0.00009040,-0
 .00037104,-0.00002714,0.00074381,0.00003967,0.00007678,0.00058616,0.00
 043838,-0.00029266,0.00038889,-0.00020889,0.00087273,-0.00116463,-0.00
 157177,-0.00069280,-0.00032267,-0.00005348,0.00006809,0.00018196,-0.00
 004907,0.00014953,-0.00008421,0.00016333,-0.00003016,0.00022393,-0.000
 49146,-0.00021115,-0.00000096,0.00004279,0.00001969,-0.00001856,-0.000
 05502,0.00004259,0.00042359,0.00002361,-0.00007543,-0.00087232,0.00088
 935,-0.00017921,-0.00034397,-0.00006229,-0.00002914,-0.00035419,0.0001
 2459,0.00006878,0.00009727,0.00026659,-0.00017306,-0.00004479,-0.00006
 553,0.00008827,-0.00003034,-0.00018550,0.00012255,-0.00009593,-0.00008
 527,-0.00003272,0.00008855,0.00007453,0.00004446,0.00004377,0.00002632
 ,0.00001548,-0.00016517,-0.00005447,0.00005931,0.00015642,0.00003507,-
 0.00007138,0.00007838,0.00002277,-0.00003526,-0.19613014,-0.14267935,-
 0.10755851,0.02732146,0.01087186,0.00933753,0.16807927,0.13538978,-0.0
 0050945,-0.00015620,-0.00031845,-0.00125116,-0.00057652,0.00048130,0.0
 0061151,0.00046036,-0.00044731,0.00108754,0.00044480,0.00021202,-0.000
 21367,-0.00003216,0.00000337,-0.00004152,0.00003324,0.00015316,-0.0001
 2973,0.00156836,0.00109658,-0.00013028,-0.00000561,-0.00002822,0.00045
 955,-0.00022971,0.00075077,0.00022287,-0.00052990,-0.00116797,0.000041
 11,0.00006877,-0.00025984,0.00013741,0.00014191,-0.00021326,-0.0006151
 3,0.00040300,-0.00147613,-0.00018381,-0.00053098,-0.00090477,-0.000038
 84,0.00005745,-0.00025039,0.00001989,0.00001324,0.00009468,0.00004940,
 -0.00008201,-0.00008463,-0.00011156,0.00027778,0.00019486,-0.00002444,
 -0.00003390,-0.00000984,0.00000975,-0.00001108,0.00003651,-0.00010251,
 -0.00005465,0.00005943,0.00042541,-0.00087929,-0.00037710,0.00003635,0
 .00003804,-0.00009831,0.00011116,-0.00003091,-0.00004748,-0.00001130,0
 .00005125,-0.00006918,0.00000345,-0.00000016,0.00001787,-0.00000209,-0
 .00004632,0.00006479,0.00002369,-0.00000008,-0.00003119,-0.00001832,0.
 00000163,0.00001695,-0.00000554,0.00000283,0.00001594,0.00002743,0.000
 00404,-0.00005449,-0.00003584,-0.00000811,0.00003290,-0.00001048,-0.00
 000156,0.00003022,-0.16086859,-0.09864245,-0.08550198,0.00835938,0.000
 51746,0.00392795,0.15269763,0.09777341,0.08415226,-0.00127418,-0.00035
 622,0.00016588,-0.00058522,0.00010354,-0.00060677,-0.00054371,-0.00043
 664,0.00056508,-0.00012890,-0.00033224,0.00011620,0.00036536,0.0002576
 7,-0.00020643,0.00506940,0.00363964,-0.00099620,0.00090167,-0.00017951
 ,0.00036278,0.00028857,-0.00003111,0.00012131,0.00047085,0.00012705,-0
 .00017791,-0.00018249,-0.00001836,0.00017315,-0.00989653,-0.00850183,0
 .00406912,-0.01398992,-0.00271692,-0.00323932,-0.00028019,-0.00004634,
 -0.00004296,-0.00074002,-0.00025548,0.00002247,-0.00007206,0.00004771,
 -0.00003166,0.00035846,-0.00019632,0.00010486,-0.00003700,0.00016069,-
 0.00008872,0.00023851,-0.00051224,-0.00016396,-0.00003818,0.00003915,0
 .00002859,0.00007172,-0.00006751,0.00006027,0.00057933,-0.00019627,-0.
 00006959,-0.00094638,0.00049471,-0.00022622,-0.00044983,0.00008768,-0.
 00005951,-0.00052475,0.00028153,0.00008266,-0.00063229,0.00157114,-0.0
 0146235,-0.00004557,-0.00022667,0.00029773,0.00110083,-0.00212170,0.00
 186194,-0.00016870,-0.00004692,-0.00006336,0.00013389,0.00005249,0.000
 06672,0.00007202,0.00001172,0.00001962,-0.00024609,-0.00003051,0.00009
 973,0.00023225,0.00002992,-0.00010562,0.00011333,0.00000807,-0.0000546
 0,-0.00004337,-0.00049551,-0.00003316,0.00008082,0.00023779,0.00002335
 ,-0.00005336,0.00028250,0.00004067,0.47642046,-0.00059583,0.00022779,-
 0.00139359,0.00005125,0.00009415,-0.00009203,-0.00046258,-0.00017978,0
 .00029870,-0.00001787,0.00000773,-0.00006670,0.00022110,0.00015911,-0.
 00018085,0.00453159,-0.00662187,0.00709853,0.00039880,-0.00013512,0.00
 009617,0.00001226,-0.00011016,-0.00002151,0.00016910,-0.00000601,-0.00
 006977,-0.00004008,-0.00002012,0.00003886,-0.01292441,0.00089452,0.000
 70522,-0.00023482,0.00731057,-0.00252878,-0.00010392,0.00000823,-0.000
 00495,-0.00032887,0.00001090,0.00000105,-0.00005585,0.00004104,-0.0000
 0623,0.00019049,-0.00013991,0.00006806,-0.00000196,0.00013433,-0.00000
 445,0.00020948,-0.00039874,-0.00012879,-0.00003043,0.00002430,0.000004
 36,-0.00003297,-0.00006913,0.00002272,0.00011906,-0.00019835,0.0000207
 5,-0.00052861,0.00039396,-0.00008633,-0.00012472,0.00017800,-0.0000651
 9,-0.00017500,0.00017983,0.00002802,0.00021972,0.00081408,-0.00036677,
 -0.00008059,-0.00013055,0.00014155,0.00002946,-0.00100555,0.00044512,-
 0.00005148,0.00001200,-0.00001229,0.00003849,0.00000017,0.00001445,0.0
 0001985,-0.00000860,-0.00000077,-0.00006529,0.00001767,0.00004254,0.00
 006433,-0.00000597,-0.00003491,0.00003228,-0.00000748,-0.00002128,-0.0
 0010786,-0.00008821,0.00001624,0.00007474,0.00001651,-0.00000640,0.000
 03455,0.00004741,-0.00001507,0.06389918,0.26094773,0.00056667,-0.00132
 433,0.00077668,-0.00025495,0.00000145,-0.00012103,0.00019815,0.0001707
 0,-0.00005973,-0.00003016,-0.00007195,0.00019408,-0.00009867,-0.000133
 36,0.00009979,-0.00261978,0.00639711,-0.01025674,-0.00006631,0.0001112
 1,0.00008259,0.00012127,-0.00000334,0.00002230,-0.00004167,-0.00005245
 ,-0.00004669,-0.00002357,-0.00001921,0.00000237,0.00925704,0.00240656,
 0.00610130,-0.00621704,-0.00341895,0.00677720,0.00007625,0.00002967,-0
 .00000629,0.00007043,0.00003143,0.00006438,-0.00000083,0.00001479,0.00
 000932,-0.00003993,0.00003333,-0.00003736,0.00002962,-0.00002905,0.000
 04281,-0.00003698,0.00004621,0.00001485,-0.00001285,-0.00000175,-0.000
 00890,0.00004737,0.00002449,-0.00004366,0.00001378,0.00002440,-0.00003
 216,0.00008127,-0.00006626,0.00008870,0.00001221,-0.00003348,0.0000476
 5,0.00000568,-0.00001535,0.00002766,-0.00047649,0.00002171,0.00018944,
 0.00023832,0.00004485,0.00001934,0.00026635,-0.00015448,-0.00023873,0.
 00000460,0.00000464,0.00002787,-0.00000615,-0.00000410,-0.00001645,-0.
 00000389,-0.00000465,-0.00001452,0.00001169,0.00000785,0.00002934,-0.0
 0000323,-0.00000137,-0.00001277,-0.00000591,-0.00000348,-0.00001327,-0
 .00002664,0.00005163,0.00007321,0.00000390,-0.00003450,-0.00002649,0.0
 0001818,-0.00003355,-0.00005022,0.07693487,-0.24814863,0.32346689,0.00
 144430,-0.00096053,0.00110114,0.00016708,-0.00011138,0.00029500,0.0006
 7317,0.00042114,-0.00041061,0.00007089,0.00013827,0.00008974,-0.000407
 73,-0.00033089,0.00029739,-0.01182421,0.00597625,-0.01203342,-0.000701
 79,0.00025602,-0.00014664,-0.00004624,0.00003814,-0.00003882,-0.000362
 37,-0.00010908,0.00012073,0.00011263,0.00002051,-0.00011837,0.00880134
 ,0.00175158,0.00367061,-0.00098517,-0.00521256,0.00614992,0.00026162,0
 .00003830,0.00002565,0.00058876,0.00018669,-0.00000872,0.00006464,-0.0
 0003679,0.00002839,-0.00029064,0.00016957,-0.00008805,0.00003420,-0.00
 015236,0.00006355,-0.00022903,0.00046234,0.00014893,0.00002929,-0.0000
 3428,-0.00001928,-0.00001728,0.00006870,-0.00005523,-0.00041177,0.0001
 7550,0.00003781,0.00080537,-0.00045417,0.00019509,0.00033254,-0.000102
 81,0.00005980,0.00039198,-0.00023032,-0.00006048,0.00023103,-0.0010153
 1,0.00091488,0.00008248,0.00015232,-0.00019223,-0.00059471,0.00125938,
 -0.00113761,0.00012501,0.00003153,0.00004686,-0.00009945,-0.00003696,-
 0.00004948,-0.00005304,-0.00000709,-0.00001382,0.00018100,0.00001867,-
 0.00007530,-0.00017088,-0.00001968,0.00007844,-0.00008425,-0.00000450,
 0.00004112,0.00003567,0.00038758,0.00002662,-0.00006699,-0.00018269,-0
 .00001703,0.00004064,-0.00022258,-0.00003314,-0.14648505,-0.15545663,0
 .13118053,0.13621352,0.00036577,-0.00023142,0.00171381,-0.00007003,-0.
 00012676,0.00004445,0.00046340,0.00022854,-0.00025733,0.00001615,0.000
 00952,0.00006323,-0.00017079,-0.00012160,0.00013996,-0.00192180,0.0086
 5582,-0.00850223,-0.00024358,0.00000470,-0.00006355,0.00002572,0.00008
 483,0.00004637,-0.00013814,-0.00001512,0.00004374,0.00002727,0.0000198
 9,-0.00002571,0.00577848,-0.00834492,0.00353818,-0.00293569,-0.0053147
 8,0.00230606,0.00007306,-0.00000339,0.00000561,0.00023722,0.00001737,-
 0.00000295,0.00004056,-0.00002527,0.00001139,-0.00013253,0.00009106,-0
 .00004435,0.00000495,-0.00008819,0.00000777,-0.00013688,0.00027246,0.0
 0008541,0.00001695,-0.00001732,-0.00000334,0.00001950,0.00004157,-0.00
 001723,-0.00010967,0.00011844,-0.00000728,0.00040095,-0.00025656,0.000
 08356,0.00010428,-0.00010131,0.00004014,0.00013588,-0.00011738,-0.0000
 2213,-0.00009221,-0.00034711,0.00019197,0.00005747,0.00005966,-0.00007
 409,-0.00007068,0.00036934,-0.00022585,0.00004112,-0.00000146,0.000012
 15,-0.00003167,-0.00000501,-0.00001365,-0.00001646,0.00000319,-0.00000
 128,0.00005489,-0.00000605,-0.00003107,-0.00005318,0.00000010,0.000027
 55,-0.00002662,0.00000330,0.00001600,0.00006202,0.00008820,-0.00000002
 ,-0.00004717,-0.00002871,0.00000030,-0.00001652,-0.00004818,0.00000145
 ,-0.12068185,-0.20464883,0.17321125,0.12702442,0.22252774,-0.00038397,
 0.00128010,-0.00037765,0.00014969,-0.00001296,0.00001221,-0.00017075,-
 0.00013507,0.00007972,0.00001583,0.00002985,-0.00007631,0.00003069,0.0
 0005073,-0.00002387,-0.00279897,-0.00552231,0.00705680,0.00007589,-0.0
 0014152,-0.00010990,-0.00010090,0.00003256,0.00000272,0.00004214,0.000
 03443,0.00000889,0.00001011,0.00001245,-0.00000025,-0.00089429,0.00208
 313,-0.00957722,0.00374939,0.00153597,-0.00273125,-0.00006944,-0.00002
 251,0.00000632,-0.00004741,-0.00001982,-0.00002958,0.00000005,-0.00000
 601,-0.00000276,0.00002837,-0.00002171,0.00001982,-0.00001570,0.000022
 02,-0.00001744,0.00003220,-0.00004018,-0.00001423,0.00000382,0.0000025
 4,0.00000350,-0.00002424,-0.00001512,0.00002020,0.00000208,-0.00001977
 ,0.00001324,-0.00006303,0.00005427,-0.00004267,-0.00001345,0.00002237,
 -0.00002446,-0.00001322,0.00001603,-0.00001004,0.00022108,-0.00008547,
 0.00003277,-0.00007519,-0.00000278,-0.00000774,-0.00015059,0.00019215,
 -0.00006130,-0.00000548,-0.00000250,-0.00001332,0.00000532,0.00000257,
 0.00000842,0.00000317,0.00000196,0.00000663,-0.00000999,-0.00000303,-0
 .00001108,0.00000577,0.00000057,0.00000358,0.00000497,0.00000131,0.000
 00504,0.00001685,-0.00003896,-0.00003795,-0.00000078,0.00002362,0.0000
 1290,-0.00001414,0.00002381,0.00002874,0.09229057,0.16200938,-0.166271
 86,-0.10262297,-0.19172381,0.19586084,0.00049965,0.00131537,-0.0014275
 8,0.00071604,0.00001555,0.00047876,0.00016665,0.00019257,-0.00033843,0
 .00013811,0.00034472,-0.00027309,-0.00012038,-0.00002700,0.00001318,-0
 .00079203,-0.01239619,0.01276884,-0.00061746,0.00006763,-0.00037617,-0
 .00028478,0.00003905,-0.00010796,-0.00032192,-0.00007153,0.00015634,0.
 00015338,0.00001496,-0.00012552,-0.00607013,0.00295189,-0.00461233,0.0
 0460633,0.00751600,-0.00510055,0.00017177,0.00003215,0.00003550,0.0004
 8009,0.00017367,-0.00003207,0.00004200,-0.00003795,0.00001572,-0.00023
 232,0.00012194,-0.00006418,0.00001568,-0.00009605,0.00005810,-0.000139
 62,0.00031561,0.00010171,0.00003229,-0.00002419,-0.00001948,-0.0000742
 1,0.00003873,-0.00003150,-0.00039555,0.00012782,0.00005256,0.00059292,
 -0.00030246,0.00013416,0.00029929,-0.00004923,0.00003219,0.00035085,-0
 .00018607,-0.00005786,0.00072872,-0.00133524,0.00126492,0.00002088,0.0
 0017424,-0.00024503,-0.00123746,0.00191607,-0.00165624,0.00011017,0.00
 003006,0.00004122,-0.00008777,-0.00003443,-0.00004372,-0.00004695,-0.0
 0000709,-0.00001230,0.00016109,0.00001884,-0.00006802,-0.00015341,-0.0
 0001919,0.00007097,-0.00007396,-0.00000479,0.00003706,0.00002436,0.000
 32386,0.00002178,-0.00005066,-0.00015669,-0.00001495,0.00003912,-0.000
 18443,-0.00002684,-0.30913363,0.10110404,-0.20917312,0.01214327,-0.008
 05467,0.01078660,0.29833948,0.00030339,0.00049665,0.00049145,0.0000465
 1,-0.00000816,0.00009394,0.00021126,0.00001505,-0.00018028,0.00004168,
 0.00004500,-0.00002247,-0.00010341,-0.00006014,0.00006844,-0.00548959,
 -0.00137301,0.00106418,-0.00028974,0.00007696,-0.00012954,-0.00008084,
 0.00007126,-0.00002398,-0.00011465,0.00000117,0.00006193,0.00003892,0.
 00000357,-0.00004004,0.00177805,0.00031385,-0.00197867,0.00484841,-0.0
 0465645,0.00042269,0.00006664,-0.00000258,0.00001111,0.00020715,0.0000
 1410,-0.00000893,0.00002917,-0.00002493,0.00000184,-0.00011482,0.00007
 936,-0.00003917,0.00000185,-0.00008072,0.00000696,-0.00012314,0.000234
 17,0.00007714,0.00001981,-0.00001457,-0.00000432,0.00001332,0.00004455
 ,-0.00001727,-0.00008946,0.00010972,-0.00000723,0.00031595,-0.00022982
 ,0.00004768,0.00008531,-0.00009439,0.00003554,0.00011503,-0.00010569,-
 0.00001782,-0.00015625,-0.00087501,0.00046822,0.00004981,0.00011542,-0
 .00012214,0.00003968,0.00127656,-0.00064544,0.00003421,-0.00000324,0.0
 0000940,-0.00002613,-0.00000293,-0.00001056,-0.00001350,0.00000353,-0.
 00000077,0.00004493,-0.00000696,-0.00002587,-0.00004380,0.00000153,0.0
 0002258,-0.00002184,0.00000304,0.00001331,0.00005161,0.00008126,-0.000
 01083,-0.00003990,-0.00002599,0.00000275,-0.00000966,-0.00004584,0.000
 00765,0.06611798,-0.05774567,0.07092095,0.02610366,-0.01274639,0.03038
 172,-0.09384761,0.07511574,-0.00046472,0.00075630,-0.00025015,0.000139
 90,0.00000342,0.00011667,-0.00003357,-0.00007792,-0.00001545,0.0000223
 0,0.00004798,-0.00011791,0.00006657,0.00007590,-0.00006029,0.00528576,
 -0.00101232,0.00480266,0.00004683,-0.00005930,-0.00001346,-0.00003474,
 -0.00000689,0.00000691,0.00000623,0.00002551,0.00002662,0.00001193,0.0
 0000390,-0.00000169,-0.00330729,-0.00167987,-0.00146664,-0.00194032,0.
 00134853,-0.00789202,-0.00003551,-0.00001418,0.00000313,-0.00003902,-0
 .00001813,-0.00002904,0.00000197,-0.00000803,-0.00000435,0.00001974,-0
 .00001598,0.00001828,-0.00001739,0.00001397,-0.00002743,0.00001648,-0.
 00001781,-0.00000602,0.00000906,0.00000080,0.00000525,-0.00002792,-0.0
 0001431,0.00002935,-0.00000413,-0.00000971,0.00001582,-0.00003080,0.00
 002988,-0.00004428,-0.00000734,0.00001431,-0.00002274,-0.00000363,0.00
 000610,-0.00001403,0.00040193,0.00013913,-0.00032135,-0.00022103,-0.00
 005391,-0.00002641,-0.00027223,-0.00019046,0.00046225,-0.00000259,-0.0
 0000256,-0.00001356,0.00000336,0.00000223,0.00000820,0.00000207,0.0000
 0245,0.00000703,-0.00000655,-0.00000458,-0.00001348,0.00000253,0.00000
 120,0.00000584,0.00000323,0.00000200,0.00000591,0.00000985,-0.00002362
 ,-0.00003109,-0.00000162,0.00001638,0.00001170,-0.00000645,0.00001465,
 0.00002048,-0.16987921,0.08220358,-0.16090087,-0.02745100,0.01942551,-
 0.02374147,0.19773734,-0.10092415,0.18946765\\0.00000057,-0.00000177,-
 0.00000183,0.00000060,-0.00000023,-0.00000291,0.00000553,0.00000601,0.
 00000654,-0.00000836,-0.00000534,-0.00000664,0.00000065,-0.00000383,-0
 .00000237,0.00000451,-0.00000256,0.00000259,-0.00000308,0.00000927,-0.
 00000403,-0.00000955,-0.00000022,-0.00001098,0.00000440,0.00000461,0.0
 0000483,0.00000218,-0.00000313,-0.00000208,-0.00000100,0.00000018,-0.0
 0000220,-0.00001143,0.00000680,0.00000176,0.00000192,-0.00000079,0.000
 00117,-0.00000549,-0.00000471,-0.00000997,0.00000111,0.00000263,-0.000
 00387,0.00000365,-0.00000555,-0.00000122,0.00000123,-0.00000193,0.0000
 0383,0.00000304,0.00000492,-0.00000131,0.00000072,0.00000319,0.0000055
 9,0.00000026,0.00000588,0.00000408,0.00000050,-0.00001112,0.00001065,-
 0.00000102,-0.00000932,0.00000250,0.00000207,0.00001136,-0.00000542,0.
 00000036,0.00000248,0.00000226,-0.00000741,0.00000142,0.00000217,-0.00
 000176,0.00000309,0.00000364,0.00001778,-0.00000500,0.00001328,-0.0000
 1268,0.00000905,-0.00001287,-0.00000193,-0.00000324,-0.00000087,0.0000
 1999,-0.00000466,0.00001094,-0.00000109,0.00000110,0.00000513,-0.00000
 295,-0.00000028,-0.00000557,-0.00000264,0.00000113,0.00000090,-0.00000
 086,-0.00000244,-0.00000746,-0.00000276,-0.00000064,-0.00000530,-0.000
 00218,0.00000085,-0.00000404,-0.00000396,0.00000022,0.00000089,0.00000
 417,-0.00000528,0.00000360,0.00000492,-0.00000214,0.00000459\\\@


 FOR THE NATURE OF THE CHEMICAL BOND
 IS THE PROBLEM AT THE HEART OF ALL CHEMISTRY.

                     -- BRYCE CRAWFORD, JR., 1953
 Job cpu time:       0 days  0 hours  1 minutes 45.4 seconds.
 File lengths (MBytes):  RWF=    683 Int=      0 D2E=      0 Chk=     14 Scr=      1
 Normal termination of Gaussian 09 at Wed Feb  6 09:38:35 2019.
