 Entering Gaussian System, Link 0=g09
 Initial command:
 /global/apps/Gaussian/09.d01/l1.exe "/global/work/gvi022/1443316/Gau-49215.inp" -scrdir="/global/work/gvi022/1443316/"
 Entering Link 1 = /global/apps/Gaussian/09.d01/l1.exe PID=     49216.
  
 Copyright (c) 1988,1990,1992,1993,1995,1998,2003,2009,2013,
            Gaussian, Inc.  All Rights Reserved.
  
 This is part of the Gaussian(R) 09 program.  It is based on
 the Gaussian(R) 03 system (copyright 2003, Gaussian, Inc.),
 the Gaussian(R) 98 system (copyright 1998, Gaussian, Inc.),
 the Gaussian(R) 94 system (copyright 1995, Gaussian, Inc.),
 the Gaussian 92(TM) system (copyright 1992, Gaussian, Inc.),
 the Gaussian 90(TM) system (copyright 1990, Gaussian, Inc.),
 the Gaussian 88(TM) system (copyright 1988, Gaussian, Inc.),
 the Gaussian 86(TM) system (copyright 1986, Carnegie Mellon
 University), and the Gaussian 82(TM) system (copyright 1983,
 Carnegie Mellon University). Gaussian is a federally registered
 trademark of Gaussian, Inc.
  
 This software contains proprietary and confidential information,
 including trade secrets, belonging to Gaussian, Inc.
  
 This software is provided under written license and may be
 used, copied, transmitted, or stored only in accord with that
 written license.
  
 The following legend is applicable only to US Government
 contracts under FAR:
  
                    RESTRICTED RIGHTS LEGEND
  
 Use, reproduction and disclosure by the US Government is
 subject to restrictions as set forth in subparagraphs (a)
 and (c) of the Commercial Computer Software - Restricted
 Rights clause in FAR 52.227-19.
  
 Gaussian, Inc.
 340 Quinnipiac St., Bldg. 40, Wallingford CT 06492
  
  
 ---------------------------------------------------------------
 Warning -- This program may not be used in any manner that
 competes with the business of Gaussian, Inc. or will provide
 assistance to any competitor of Gaussian, Inc.  The licensee
 of this program is prohibited from giving any competitor of
 Gaussian, Inc. access to this program.  By using this program,
 the user acknowledges that Gaussian, Inc. is engaged in the
 business of creating and licensing software in the field of
 computational chemistry and represents and warrants to the
 licensee that it is not a competitor of Gaussian, Inc. and that
 it will not use this program in any manner prohibited above.
 ---------------------------------------------------------------
  

 Cite this work as:
 Gaussian 09, Revision D.01,
 M. J. Frisch, G. W. Trucks, H. B. Schlegel, G. E. Scuseria, 
 M. A. Robb, J. R. Cheeseman, G. Scalmani, V. Barone, B. Mennucci, 
 G. A. Petersson, H. Nakatsuji, M. Caricato, X. Li, H. P. Hratchian, 
 A. F. Izmaylov, J. Bloino, G. Zheng, J. L. Sonnenberg, M. Hada, 
 M. Ehara, K. Toyota, R. Fukuda, J. Hasegawa, M. Ishida, T. Nakajima, 
 Y. Honda, O. Kitao, H. Nakai, T. Vreven, J. A. Montgomery, Jr., 
 J. E. Peralta, F. Ogliaro, M. Bearpark, J. J. Heyd, E. Brothers, 
 K. N. Kudin, V. N. Staroverov, T. Keith, R. Kobayashi, J. Normand, 
 K. Raghavachari, A. Rendell, J. C. Burant, S. S. Iyengar, J. Tomasi, 
 M. Cossi, N. Rega, J. M. Millam, M. Klene, J. E. Knox, J. B. Cross, 
 V. Bakken, C. Adamo, J. Jaramillo, R. Gomperts, R. E. Stratmann, 
 O. Yazyev, A. J. Austin, R. Cammi, C. Pomelli, J. W. Ochterski, 
 R. L. Martin, K. Morokuma, V. G. Zakrzewski, G. A. Voth, 
 P. Salvador, J. J. Dannenberg, S. Dapprich, A. D. Daniels, 
 O. Farkas, J. B. Foresman, J. V. Ortiz, J. Cioslowski, 
 and D. J. Fox, Gaussian, Inc., Wallingford CT, 2013.
 
 ******************************************
 Gaussian 09:  EM64L-G09RevD.01 24-Apr-2013
                 6-Feb-2019 
 ******************************************
 %LindaWorkers=cib46-2,cib46-6,cib46-8,cib47-4
 %NProcShared=20
 Will use up to   20 processors via shared memory.
 %chk=ChorA_RS_solv.chk
 SetLPE:  input flags=""
 SetLPE:    new flags=" -nodelist 'cib46-2.ibnet cib46-6.ibnet cib46-8.ibnet cib47-4.ibnet'"
 Will use up to    4 processors via Linda.
 ------------------------------------------------------------------
 #p rb3lyp/6-311+g(2d,2p) geom=connectivity empiricaldispersion=gd3
 ------------------------------------------------------------------
 1/38=1,57=2/1;
 2/12=2,17=6,18=5,40=1/2;
 3/5=4,6=6,7=212,11=2,16=1,25=1,30=1,74=-5,116=1,124=31/1,2,3;
 4//1;
 5/5=2,38=5/2;
 6/7=2,8=2,9=2,10=2,28=1/1;
 99/5=1,9=1/99;
 Leave Link    1 at Wed Feb  6 11:12:22 2019, MaxMem=           0 cpu:         1.4
 (Enter /global/apps/Gaussian/09.d01/l101.exe)
 -------------------
 Title Card Required
 -------------------
 Symbolic Z-matrix:
 Charge = -2 Multiplicity = 1
 C                    -2.35782   0.54768  -0.19026 
 C                    -1.99598   1.7879   -0.89989 
 C                    -1.41738  -0.07107   0.54721 
 C                    -0.71297   2.15851  -1.0489 
 H                    -2.81805   2.35495  -1.32468 
 C                    -3.8039    0.05831  -0.26287 
 C                    -0.04596   0.53487   0.72136 
 H                    -1.65135  -0.97271   1.09733 
 C                     0.41375   1.29578  -0.52834 
 H                    -0.42221   3.03798  -1.61908 
 O                    -4.6292    0.85435  -0.78096 
 O                    -4.06428  -1.09064   0.21814 
 H                    -0.10106   1.2819    1.52876 
 O                     1.55783   2.08956  -0.25412 
 H                     0.66087   0.54994  -1.30789 
 H                     2.28345   1.42914  -0.057 
 C                     0.8024   -2.42839  -0.0374 
 C                     1.47262  -1.33148   0.33114 
 H                     1.31798  -3.13757  -0.67437 
 H                    -0.22017  -2.63553   0.26546 
 C                     2.90068  -1.06216  -0.15058 
 O                     0.95244  -0.38368   1.19682 
 O                     3.33035   0.13868  -0.05492 
 O                     3.53781  -2.03267  -0.62584 
 O                    -2.54667  -3.24038   0.85386 
 H                    -2.52755  -3.04087   1.79753 
 H                    -3.0678   -2.47313   0.49938 
 O                     6.03116   0.13813   1.09236 
 H                     5.06701   0.2399    1.00338 
 H                     6.22112  -0.28189   0.23391 
 O                     5.68863  -0.69872  -1.64442 
 H                     5.02948  -1.37027  -1.33336 
 H                     5.15291   0.089    -1.45783 
 O                     0.22327   3.86188   1.48589 
 H                     0.89084   3.34125   0.99301 
 H                    -0.58311   3.61477   1.0122 
 O                    -6.86911  -0.8376   -0.34784 
 H                    -6.37746  -0.04534  -0.64204 
 H                    -6.08531  -1.31256  -0.01525 
 
 NAtoms=     39 NQM=       39 NQMF=       0 NMMI=      0 NMMIF=      0
                NMic=       0 NMicF=      0.
                    Isotopes and Nuclear Properties:
 (Nuclear quadrupole moments (NQMom) in fm**2, nuclear magnetic moments (NMagM)
  in nuclear magnetons)

  Atom         1           2           3           4           5           6           7           8           9          10
 IAtWgt=          12          12          12          12           1          12          12           1          12           1
 AtmWgt=  12.0000000  12.0000000  12.0000000  12.0000000   1.0078250  12.0000000  12.0000000   1.0078250  12.0000000   1.0078250
 NucSpn=           0           0           0           0           1           0           0           1           0           1
 AtZEff=   0.0000000   0.0000000   0.0000000   0.0000000   0.0000000   0.0000000   0.0000000   0.0000000   0.0000000   0.0000000
 NQMom=    0.0000000   0.0000000   0.0000000   0.0000000   0.0000000   0.0000000   0.0000000   0.0000000   0.0000000   0.0000000
 NMagM=    0.0000000   0.0000000   0.0000000   0.0000000   2.7928460   0.0000000   0.0000000   2.7928460   0.0000000   2.7928460
 AtZNuc=   6.0000000   6.0000000   6.0000000   6.0000000   1.0000000   6.0000000   6.0000000   1.0000000   6.0000000   1.0000000

  Atom        11          12          13          14          15          16          17          18          19          20
 IAtWgt=          16          16           1          16           1           1          12          12           1           1
 AtmWgt=  15.9949146  15.9949146   1.0078250  15.9949146   1.0078250   1.0078250  12.0000000  12.0000000   1.0078250   1.0078250
 NucSpn=           0           0           1           0           1           1           0           0           1           1
 AtZEff=   0.0000000   0.0000000   0.0000000   0.0000000   0.0000000   0.0000000   0.0000000   0.0000000   0.0000000   0.0000000
 NQMom=    0.0000000   0.0000000   0.0000000   0.0000000   0.0000000   0.0000000   0.0000000   0.0000000   0.0000000   0.0000000
 NMagM=    0.0000000   0.0000000   2.7928460   0.0000000   2.7928460   2.7928460   0.0000000   0.0000000   2.7928460   2.7928460
 AtZNuc=   8.0000000   8.0000000   1.0000000   8.0000000   1.0000000   1.0000000   6.0000000   6.0000000   1.0000000   1.0000000

  Atom        21          22          23          24          25          26          27          28          29          30
 IAtWgt=          12          16          16          16          16           1           1          16           1           1
 AtmWgt=  12.0000000  15.9949146  15.9949146  15.9949146  15.9949146   1.0078250   1.0078250  15.9949146   1.0078250   1.0078250
 NucSpn=           0           0           0           0           0           1           1           0           1           1
 AtZEff=   0.0000000   0.0000000   0.0000000   0.0000000   0.0000000   0.0000000   0.0000000   0.0000000   0.0000000   0.0000000
 NQMom=    0.0000000   0.0000000   0.0000000   0.0000000   0.0000000   0.0000000   0.0000000   0.0000000   0.0000000   0.0000000
 NMagM=    0.0000000   0.0000000   0.0000000   0.0000000   0.0000000   2.7928460   2.7928460   0.0000000   2.7928460   2.7928460
 AtZNuc=   6.0000000   8.0000000   8.0000000   8.0000000   8.0000000   1.0000000   1.0000000   8.0000000   1.0000000   1.0000000

  Atom        31          32          33          34          35          36          37          38          39
 IAtWgt=          16           1           1          16           1           1          16           1           1
 AtmWgt=  15.9949146   1.0078250   1.0078250  15.9949146   1.0078250   1.0078250  15.9949146   1.0078250   1.0078250
 NucSpn=           0           1           1           0           1           1           0           1           1
 AtZEff=   0.0000000   0.0000000   0.0000000   0.0000000   0.0000000   0.0000000   0.0000000   0.0000000   0.0000000
 NQMom=    0.0000000   0.0000000   0.0000000   0.0000000   0.0000000   0.0000000   0.0000000   0.0000000   0.0000000
 NMagM=    0.0000000   2.7928460   2.7928460   0.0000000   2.7928460   2.7928460   0.0000000   2.7928460   2.7928460
 AtZNuc=   8.0000000   1.0000000   1.0000000   8.0000000   1.0000000   1.0000000   8.0000000   1.0000000   1.0000000
 Leave Link  101 at Wed Feb  6 11:12:22 2019, MaxMem=    33554432 cpu:         2.1
 (Enter /global/apps/Gaussian/09.d01/l202.exe)
                          Input orientation:                          
 ---------------------------------------------------------------------
 Center     Atomic      Atomic             Coordinates (Angstroms)
 Number     Number       Type             X           Y           Z
 ---------------------------------------------------------------------
      1          6           0       -2.357817    0.547679   -0.190259
      2          6           0       -1.995980    1.787899   -0.899894
      3          6           0       -1.417375   -0.071072    0.547213
      4          6           0       -0.712971    2.158511   -1.048902
      5          1           0       -2.818052    2.354950   -1.324678
      6          6           0       -3.803904    0.058313   -0.262871
      7          6           0       -0.045964    0.534874    0.721363
      8          1           0       -1.651345   -0.972708    1.097329
      9          6           0        0.413753    1.295779   -0.528341
     10          1           0       -0.422208    3.037979   -1.619075
     11          8           0       -4.629197    0.854345   -0.780964
     12          8           0       -4.064285   -1.090640    0.218137
     13          1           0       -0.101064    1.281896    1.528763
     14          8           0        1.557826    2.089556   -0.254119
     15          1           0        0.660866    0.549938   -1.307889
     16          1           0        2.283451    1.429138   -0.056999
     17          6           0        0.802396   -2.428389   -0.037401
     18          6           0        1.472617   -1.331475    0.331141
     19          1           0        1.317983   -3.137571   -0.674370
     20          1           0       -0.220171   -2.635529    0.265463
     21          6           0        2.900682   -1.062160   -0.150581
     22          8           0        0.952439   -0.383676    1.196820
     23          8           0        3.330353    0.138676   -0.054917
     24          8           0        3.537807   -2.032671   -0.625839
     25          8           0       -2.546669   -3.240379    0.853861
     26          1           0       -2.527545   -3.040865    1.797532
     27          1           0       -3.067803   -2.473125    0.499375
     28          8           0        6.031162    0.138134    1.092359
     29          1           0        5.067007    0.239902    1.003384
     30          1           0        6.221116   -0.281894    0.233909
     31          8           0        5.688628   -0.698716   -1.644422
     32          1           0        5.029476   -1.370266   -1.333363
     33          1           0        5.152907    0.089002   -1.457834
     34          8           0        0.223267    3.861880    1.485889
     35          1           0        0.890842    3.341252    0.993013
     36          1           0       -0.583114    3.614773    1.012204
     37          8           0       -6.869105   -0.837601   -0.347842
     38          1           0       -6.377463   -0.045338   -0.642036
     39          1           0       -6.085307   -1.312562   -0.015249
 ---------------------------------------------------------------------
                    Distance matrix (angstroms):
                    1          2          3          4          5
     1  C    0.000000
     2  C    1.473992   0.000000
     3  C    1.345789   2.425835   0.000000
     4  C    2.457146   1.343752   2.831044   0.000000
     5  H    2.182877   1.085261   3.369192   2.132137   0.000000
     6  C    1.528371   2.581832   2.523588   3.818710   2.715489
     7  C    2.485132   2.828623   1.509393   2.492977   3.896592
     8  H    2.113897   3.424708   1.081812   3.910420   4.277924
     9  C    2.890597   2.487378   2.525496   1.511555   3.492930
    10  H    3.462613   2.134638   3.917826   1.087706   2.508638
    11  O    2.366885   2.796337   3.596700   4.136359   2.414060
    12  O    2.400606   3.716701   2.855511   4.836701   3.975609
    13  H    2.930366   3.121718   2.127590   2.790563   4.083576
    14  O    4.208767   3.624577   3.763279   2.406856   4.512742
    15  H    3.218936   2.959364   2.854145   2.131199   3.919339
    16  H    4.726108   4.376381   4.038789   3.239506   5.337553
    17  C    4.343650   5.133409   3.290304   4.935496   6.135557
    18  C    4.298291   4.824635   3.160278   4.342962   5.894176
    19  H    5.227517   5.940830   4.286941   5.684499   6.906336
    20  H    3.861350   4.906961   2.844138   4.995320   5.846573
    21  C    5.499542   5.715033   4.484951   4.923230   6.764545
    22  O    3.707992   4.219612   2.477040   3.778832   5.298550
    23  O    5.704461   5.639481   4.790352   4.627765   6.657856
    24  O    6.450296   6.730131   5.456899   5.984488   7.754775
    25  O    3.933858   5.353737   3.378438   6.010904   6.010606
    26  H    4.105821   5.556584   3.408144   6.199063   6.240786
    27  H    3.178826   4.611191   2.914800   5.421665   5.167190
    28  O    8.496341   8.433612   7.471389   7.358685   9.437422
    29  H    7.526455   7.476934   6.507842   6.426592   8.489255
    30  H    8.629380   8.549282   7.647820   7.462087   9.544040
    31  O    8.271237   8.111151   7.462739   7.035543   9.043822
    32  H    7.717337   7.714851   6.840055   6.746027   8.686829
    33  H    7.630734   7.369134   6.871277   6.233668   8.287849
    34  O    4.522764   3.862436   4.363591   3.194241   4.406784
    35  H    4.444994   3.785465   4.143737   2.853158   4.483345
    36  H    3.741999   2.998296   3.807579   2.526998   3.470320
    37  O    4.721817   5.562855   5.577638   6.882308   5.249535
    38  H    4.088193   4.756537   5.100730   6.091712   4.347044
    39  H    4.169569   5.207499   4.862844   6.479103   5.083326
                    6          7          8          9         10
     6  C    0.000000
     7  C    3.913814   0.000000
     8  H    2.747118   2.234145   0.000000
     9  C    4.403456   1.533648   3.471810   0.000000
    10  H    4.706758   3.447426   4.997523   2.218962   0.000000
    11  O    1.258251   4.833743   3.966574   5.068533   4.813465
    12  O    1.272501   4.363764   2.570830   5.128845   5.803927
    13  H    4.291635   1.101350   2.769972   2.120591   3.618818
    14  O    5.733600   2.437364   4.637095   1.419219   2.585178
    15  H    4.611716   2.148883   3.667403   1.106815   2.731343
    16  H    6.243191   2.613758   4.752258   1.932801   3.514120
    17  C    5.239516   3.174329   3.070418   3.776439   5.820870
    18  C    5.488719   2.437544   3.236494   2.960129   5.146439
    19  H    6.051176   4.158759   4.079517   4.526980   6.485226
    20  H    4.514318   3.207748   2.346323   4.060439   5.981722
    21  C    6.798496   3.463167   4.720829   3.447810   5.478066
    22  O    4.994882   1.437568   2.671432   2.467171   4.639681
    23  O    7.137740   3.486990   5.232605   3.173259   4.993422
    24  O    7.642295   4.609843   5.569572   4.565939   6.509971
    25  O    3.702580   4.530300   2.450146   5.590287   7.074357
    26  H    3.934369   4.483558   2.352718   5.733010   7.284092
    27  H    2.744274   4.269525   2.148291   5.232788   6.469874
    28  O    9.928320   6.101352   7.762404   5.960041   7.576738
    29  H    8.962669   5.129232   6.827555   5.011370   6.696119
    30  H   10.043085   6.338850   7.949740   6.065933   7.654336
    31  O    9.622367   6.324890   7.840120   5.748735   7.162810
    32  H    9.011958   5.797547   7.120371   5.390803   7.016774
    33  H    9.036224   5.654729   7.345334   4.977936   6.309071
    34  O    5.808906   3.424318   5.199845   3.267764   3.276622
    35  H    5.864774   2.971053   5.008378   2.593471   2.939231
    36  H    4.964646   3.139888   4.710981   2.957153   2.698557
    37  O    3.194580   7.041459   5.415883   7.591041   7.628803
    38  H    2.603405   6.502567   5.120703   6.923304   6.776910
    39  H    2.673091   6.358402   4.584032   7.021715   7.319164
                   11         12         13         14         15
    11  O    0.000000
    12  O    2.258383   0.000000
    13  H    5.101140   4.801436   0.000000
    14  O    6.331079   6.476481   2.565716   0.000000
    15  H    5.324949   5.229465   3.027027   2.070119   0.000000
    16  H    6.974182   6.835110   2.867444   1.000770   2.229462
    17  C    6.389948   5.053658   4.127387   4.585790   3.241080
    18  C    6.576224   5.543289   3.277267   3.471778   2.623942
    19  H    7.163498   5.827118   5.138013   5.249475   3.798799
    20  H    5.719593   4.143203   4.117807   5.075201   3.660446
    21  C    7.795476   6.974778   4.162364   3.427433   2.992490
    22  O    6.049710   5.159955   1.998546   2.930630   2.688906
    23  O    8.024572   7.501096   3.948369   2.643382   2.977455
    24  O    8.663653   7.706589   5.373085   4.588165   3.925793
    25  O    4.876099   2.707154   5.185311   6.817823   5.415528
    26  H    5.122328   2.942692   4.964505   6.871735   5.718695
    27  H    3.892207   1.727234   4.895034   6.540815   5.129141
    28  O   10.847375  10.207458   6.253226   5.062784   5.896681
    29  H    9.878148   9.261072   5.298182   4.161356   4.985196
    30  H   10.956747  10.317160   6.640184   5.254352   5.829705
    31  O   10.469722   9.936903   6.892928   5.174063   5.191414
    32  H    9.926933   9.229400   6.445787   5.018714   4.772063
    33  H    9.835317   9.442302   6.160111   4.286695   4.518117
    34  O    6.142499   6.672162   2.600643   2.819540   4.354957
    35  H    6.308925   6.692935   2.347734   1.888637   3.624703
    36  H    5.215956   5.906776   2.437523   2.917788   4.040239
    37  O    2.840328   2.872521   7.336232   8.921334   7.716697
    38  H    1.971082   2.680177   6.772526   8.226607   7.094772
    39  H    2.720673   2.046521   6.702712   8.369525   7.116929
                   16         17         18         19         20
    16  H    0.000000
    17  C    4.132121   0.000000
    18  C    2.903289   1.337251   0.000000
    19  H    4.708302   1.083743   2.072908   0.000000
    20  H    4.784728   1.086405   2.137850   1.871163   0.000000
    21  C    2.568326   2.506431   1.530998   2.662071   3.519703
    22  O    2.574869   2.393045   1.385030   3.349464   2.704308
    23  O    1.661716   3.602873   2.400327   3.894502   4.517198
    24  O    3.725736   2.825832   2.381700   2.480076   3.908997
    25  O    6.779684   3.559482   4.480157   4.157114   2.474803
    26  H    6.823921   3.851053   4.590600   4.572498   2.799198
    27  H    6.646287   3.907502   4.684771   4.588495   2.861835
    28  O    4.127112   5.933245   4.849694   6.005467   6.888841
    29  H    3.207316   5.137112   3.980047   5.317646   6.063570
    30  H    4.303192   5.834687   4.864084   5.746353   6.857898
    31  O    4.317743   5.426744   4.698721   5.098191   6.504830
    32  H    4.123884   4.546135   3.927254   4.163270   5.631690
    33  H    3.462958   5.223201   4.331596   5.072596   6.266003
    34  O    3.541623   6.497945   5.464911   7.406581   6.625889
    35  H    2.588062   5.861598   4.755094   6.703563   6.122548
    36  H    3.759972   6.288173   5.399560   7.214766   6.305206
    37  O    9.433556   7.840849   8.383869   8.510282   6.914985
    38  H    8.804986   7.589130   8.014049   8.293542   6.741282
    39  H    8.806519   6.977536   7.565881   7.653352   6.019042
                   21         22         23         24         25
    21  C    0.000000
    22  O    2.464037   0.000000
    23  O    1.278975   2.737549   0.000000
    24  O    1.254468   3.567268   2.254714   0.000000
    25  O    5.952073   4.530136   6.839830   6.377219   0.000000
    26  H    6.097218   4.419479   6.917804   6.608909   0.964721
    27  H    6.167340   4.584165   6.932903   6.715221   0.992935
    28  O    3.575683   5.106528   2.934384   3.725777   9.222278
    29  H    2.778482   4.166046   2.036226   3.187069   8.372740
    30  H    3.432482   5.356913   2.935440   3.317308   9.274213
    31  O    3.183755   5.532033   2.964661   2.728182   8.973382
    32  H    2.454723   4.898716   2.607364   1.778889   8.104273
    33  H    2.847209   4.991447   2.300510   2.793253   8.701275
    34  O    5.838900   4.317406   5.088253   7.084582   7.649450
    35  H    4.973661   3.731008   4.160032   6.205333   7.426555
    36  H    5.946647   4.287144   5.342024   7.180446   7.132582
    37  O    9.774358   7.985523  10.250262  10.478993   5.089291
    38  H    9.346627   7.564610   9.727295  10.112484   5.207780
    39  H    8.990496   7.201514   9.526926   9.669317   4.122352
                   26         27         28         29         30
    26  H    0.000000
    27  H    1.516384   0.000000
    28  O    9.157225   9.484802   0.000000
    29  H    8.310916   8.590092   0.973585   0.000000
    30  H    9.305692   9.547564   0.974393   1.482002   0.000000
    31  O    9.210766   9.188007   2.882294   2.877202   1.996350
    32  H    8.348771   8.375032   3.027007   2.838034   2.249645
    33  H    8.909704   8.830359   2.697634   2.467335   2.034853
    34  O    7.437202   7.206708   6.910340   6.067401   7.396790
    35  H    7.284507   7.051349   6.057452   5.201811   6.489626
    36  H    6.978185   6.595390   7.472757   6.581314   7.879550
    37  O    5.320352   4.224052  13.017032  12.060580  13.114920
    38  H    5.454039   4.260378  12.530593  11.565667  12.631209
    39  H    4.350963   3.273694  12.253168  11.305833  12.352020
                   31         32         33         34         35
    31  O    0.000000
    32  H    0.991069   0.000000
    33  H    0.970727   1.469759   0.000000
    34  O    7.776121   7.643506   6.870332   0.000000
    35  H    6.804128   6.688701   5.894826   0.979610   0.000000
    36  H    8.062171   7.864697   7.171756   0.967311   1.499243
    37  O   12.625255  11.951201  12.108652   8.703415   8.915014
    38  H   12.125272  11.504418  11.559974   7.960154   8.183559
    39  H   11.901956  11.192817  11.416781   8.296166   8.446374
                   36         37         38         39
    36  H    0.000000
    37  O    7.822215   0.000000
    38  H    7.050348   0.977723   0.000000
    39  H    7.457105   0.974959   1.443632   0.000000
 Stoichiometry    C10H18O11(2-)
 Framework group  C1[X(C10H18O11)]
 Deg. of freedom   111
 Full point group                 C1      NOp   1
 Largest Abelian subgroup         C1      NOp   1
 Largest concise Abelian subgroup C1      NOp   1
                         Standard orientation:                         
 ---------------------------------------------------------------------
 Center     Atomic      Atomic             Coordinates (Angstroms)
 Number     Number       Type             X           Y           Z
 ---------------------------------------------------------------------
      1          6           0       -2.357817    0.547679   -0.190259
      2          6           0       -1.995980    1.787899   -0.899894
      3          6           0       -1.417375   -0.071072    0.547213
      4          6           0       -0.712971    2.158511   -1.048902
      5          1           0       -2.818052    2.354950   -1.324678
      6          6           0       -3.803904    0.058313   -0.262871
      7          6           0       -0.045964    0.534874    0.721363
      8          1           0       -1.651345   -0.972708    1.097329
      9          6           0        0.413753    1.295779   -0.528341
     10          1           0       -0.422208    3.037979   -1.619075
     11          8           0       -4.629197    0.854345   -0.780964
     12          8           0       -4.064285   -1.090640    0.218137
     13          1           0       -0.101064    1.281896    1.528763
     14          8           0        1.557826    2.089556   -0.254119
     15          1           0        0.660866    0.549938   -1.307889
     16          1           0        2.283451    1.429138   -0.056999
     17          6           0        0.802396   -2.428389   -0.037401
     18          6           0        1.472617   -1.331475    0.331141
     19          1           0        1.317983   -3.137571   -0.674370
     20          1           0       -0.220171   -2.635529    0.265463
     21          6           0        2.900682   -1.062160   -0.150581
     22          8           0        0.952439   -0.383676    1.196820
     23          8           0        3.330353    0.138676   -0.054917
     24          8           0        3.537807   -2.032671   -0.625839
     25          8           0       -2.546669   -3.240379    0.853861
     26          1           0       -2.527545   -3.040865    1.797532
     27          1           0       -3.067803   -2.473125    0.499375
     28          8           0        6.031162    0.138134    1.092359
     29          1           0        5.067007    0.239902    1.003384
     30          1           0        6.221116   -0.281894    0.233909
     31          8           0        5.688628   -0.698716   -1.644422
     32          1           0        5.029476   -1.370266   -1.333363
     33          1           0        5.152907    0.089002   -1.457834
     34          8           0        0.223267    3.861880    1.485889
     35          1           0        0.890842    3.341252    0.993013
     36          1           0       -0.583114    3.614773    1.012204
     37          8           0       -6.869105   -0.837601   -0.347842
     38          1           0       -6.377463   -0.045338   -0.642036
     39          1           0       -6.085307   -1.312562   -0.015249
 ---------------------------------------------------------------------
 Rotational constants (GHZ):      0.4533215      0.1297558      0.1102147
 Leave Link  202 at Wed Feb  6 11:12:22 2019, MaxMem=    33554432 cpu:         1.1
 (Enter /global/apps/Gaussian/09.d01/l301.exe)
 Standard basis: 6-311+G(2d,2p) (5D, 7F)
 Ernie: Thresh=  0.10000D-02 Tol=  0.10000D-05 Strict=F.
 There are   771 symmetry adapted cartesian basis functions of A   symmetry.
 There are   729 symmetry adapted basis functions of A   symmetry.
   729 basis functions,  1080 primitive gaussians,   771 cartesian basis functions
    84 alpha electrons       84 beta electrons
       nuclear repulsion energy      1809.6591902066 Hartrees.
 IExCor=  402 DFT=T Ex+Corr=B3LYP ExCW=0 ScaHFX=  0.200000
 ScaDFX=  0.800000  0.720000  1.000000  0.810000 ScalE2=  1.000000  1.000000
 IRadAn=      0 IRanWt=     -1 IRanGd=            0 ICorTp=0 IEmpDi=131
 NAtoms=   39 NActive=   39 NUniq=   39 SFac= 1.00D+00 NAtFMM=   60 NAOKFM=F Big=F
 Integral buffers will be    131072 words long.
 Raffenetti 2 integral format.
 Two-electron integral symmetry is turned on.
 R6Disp:  Grimme-D3 Dispersion energy=       -0.0467471170 Hartrees.
 Nuclear repulsion after empirical dispersion term =     1809.6124430896 Hartrees.
 Leave Link  301 at Wed Feb  6 11:12:22 2019, MaxMem=    33554432 cpu:         1.0
 (Enter /global/apps/Gaussian/09.d01/linda-exe/../l302.exel)
 NPDir=0 NMtPBC=     1 NCelOv=     1 NCel=       1 NClECP=     1 NCelD=      1
         NCelK=      1 NCelE2=     1 NClLst=     1 CellRange=     0.0.
 One-electron integrals computed using PRISM.
 PrsmSu:  requested number of processors reduced to:   7 ShMem   1 Linda.
 NBasis=   729 RedAO= T EigKep=  1.10D-06  NBF=   729
 NBsUse=   729 1.00D-06 EigRej= -1.00D+00 NBFU=   729
 Precomputing XC quadrature grid using
 IXCGrd= 4 IRadAn=           0 IRanWt=          -1 IRanGd=           0 AccXCQ= 0.00D+00.
 Generated NRdTot=       0 NPtTot=           0 NUsed=           0 NTot=          32
 NSgBfM=   721   721   721   721   721 MxSgAt=    39 MxSgA2=    39.
 Leave Link  302 at Wed Feb  6 11:12:25 2019, MaxMem=    33554432 cpu:        24.0
 (Enter /global/apps/Gaussian/09.d01/l303.exe)
 DipDrv:  MaxL=1.
 Leave Link  303 at Wed Feb  6 11:12:25 2019, MaxMem=    33554432 cpu:         4.1
 (Enter /global/apps/Gaussian/09.d01/linda-exe/../l401.exel)
 ExpMin= 4.38D-02 ExpMax= 8.59D+03 ExpMxC= 1.30D+03 IAcc=2 IRadAn=         4 AccDes= 0.00D+00
 Harris functional with IExCor=  402 and IRadAn=       4 diagonalized for initial guess.
 HarFok:  IExCor=  402 AccDes= 0.00D+00 IRadAn=         4 IDoV= 1 UseB2=F ITyADJ=14
 ICtDFT=  3500011 ScaDFX=  1.000000  1.000000  1.000000  1.000000
 CalDSu:  requested number of processors reduced to:  16 ShMem   4 Linda.
 FoFCou: FMM=F IPFlag=           0 FMFlag=      100000 FMFlg1=           0
         NFxFlg=           0 DoJE=T BraDBF=F KetDBF=T FulRan=T
         wScrn=  0.000000 ICntrl=     500 IOpCl=  0 I1Cent=   200000004 NGrid=           0
         NMat0=    1 NMatS0=      1 NMatT0=    0 NMatD0=    1 NMtDS0=    0 NMtDT0=    0
 Petite list used in FoFCou.
 CoulSu:  requested number of processors reduced to:  19 ShMem   4 Linda.
 Harris En= -1220.44573575492    
 JPrj=0 DoOrth=F DoCkMO=F.
 Leave Link  401 at Wed Feb  6 11:12:29 2019, MaxMem=    33554432 cpu:        54.9
 (Enter /global/apps/Gaussian/09.d01/linda-exe/../l502.exel)
 Closed shell SCF:
 Using DIIS extrapolation, IDIIS=  1040.
 Integral symmetry usage will be decided dynamically.
 IVT=     1822963 IEndB=     1822963 NGot=    33554432 MDV=    32343322
 LenX=    32343322 LenY=    31748110
 Requested convergence on RMS density matrix=1.00D-08 within 128 cycles.
 Requested convergence on MAX density matrix=1.00D-06.
 Requested convergence on             energy=1.00D-06.
 No special actions if energy rises.
 Fock matrices will be formed incrementally for  20 cycles.

 Cycle   1  Pass 1  IDiag  1:
 FoFJK:  IHMeth= 1 ICntrl=       0 DoSepK=F KAlg= 0 I1Cent=   0 FoldK=F
 IRaf= 720000000 NMat=   1 IRICut=       1 DoRegI=T DoRafI=F ISym2E= 0.
 FoFCou: FMM=F IPFlag=           0 FMFlag=      100000 FMFlg1=           0
         NFxFlg=           0 DoJE=F BraDBF=F KetDBF=F FulRan=T
         wScrn=  0.000000 ICntrl=       0 IOpCl=  0 I1Cent=           0 NGrid=           0
         NMat0=    1 NMatS0=      1 NMatT0=    0 NMatD0=    1 NMtDS0=    0 NMtDT0=    0
 Symmetry not used in FoFCou.
 CalDSu:  requested number of processors reduced to:  16 ShMem   4 Linda.
 E= -1219.11475884310    
 DIIS: error= 2.72D-02 at cycle   1 NSaved=   1.
 NSaved= 1 IEnMin= 1 EnMin= -1219.11475884310     IErMin= 1 ErrMin= 2.72D-02
 ErrMax= 2.72D-02  0.00D+00 EMaxC= 1.00D-01 BMatC= 1.26D+00 BMatP= 1.26D+00
 IDIUse=3 WtCom= 7.28D-01 WtEn= 2.72D-01
 Coeff-Com:  0.100D+01
 Coeff-En:   0.100D+01
 Coeff:      0.100D+01
 Gap=     0.166 Goal=   None    Shift=    0.000
 GapD=    0.166 DampG=1.000 DampE=0.500 DampFc=0.5000 IDamp=-1.
 Damping current iteration by 5.00D-01
 RMSDP=1.02D-01 MaxDP=2.39D+01              OVMax= 2.76D-01

 Cycle   2  Pass 1  IDiag  1:
 RMSU=  3.17D-02    CP:  2.26D+00
 CalDSu:  requested number of processors reduced to:  16 ShMem   4 Linda.
 E= -1219.33235443556     Delta-E=       -0.217595592455 Rises=F Damp=T
 DIIS: error= 9.41D-03 at cycle   2 NSaved=   2.
 NSaved= 2 IEnMin= 2 EnMin= -1219.33235443556     IErMin= 2 ErrMin= 9.41D-03
 ErrMax= 9.41D-03  0.00D+00 EMaxC= 1.00D-01 BMatC= 1.35D-01 BMatP= 1.26D+00
 IDIUse=3 WtCom= 9.06D-01 WtEn= 9.41D-02
 Coeff-Com:  0.212D+00 0.788D+00
 Coeff-En:   0.369D+00 0.631D+00
 Coeff:      0.227D+00 0.773D+00
 Gap=     0.223 Goal=   None    Shift=    0.000
 RMSDP=4.90D-02 MaxDP=1.12D+01 DE=-2.18D-01 OVMax= 1.77D-01

 Cycle   3  Pass 1  IDiag  1:
 RMSU=  7.50D-03    CP:  1.02D+00  1.22D-01
 CalDSu:  requested number of processors reduced to:  16 ShMem   4 Linda.
 E= -1219.94415361817     Delta-E=       -0.611799182610 Rises=F Damp=F
 DIIS: error= 4.24D-03 at cycle   3 NSaved=   3.
 NSaved= 3 IEnMin= 3 EnMin= -1219.94415361817     IErMin= 3 ErrMin= 4.24D-03
 ErrMax= 4.24D-03  0.00D+00 EMaxC= 1.00D-01 BMatC= 3.85D-02 BMatP= 1.35D-01
 IDIUse=3 WtCom= 9.58D-01 WtEn= 4.24D-02
 Coeff-Com:  0.643D-01 0.382D+00 0.554D+00
 Coeff-En:   0.000D+00 0.000D+00 0.100D+01
 Coeff:      0.616D-01 0.365D+00 0.573D+00
 Gap=     0.169 Goal=   None    Shift=    0.000
 RMSDP=2.46D-03 MaxDP=6.94D-01 DE=-6.12D-01 OVMax= 4.95D-02

 Cycle   4  Pass 1  IDiag  1:
 RMSU=  1.74D-03    CP:  9.91D-01  9.42D-02  8.38D-01
 CalDSu:  requested number of processors reduced to:  16 ShMem   4 Linda.
 E= -1219.97035067910     Delta-E=       -0.026197060934 Rises=F Damp=F
 DIIS: error= 2.67D-03 at cycle   4 NSaved=   4.
 NSaved= 4 IEnMin= 4 EnMin= -1219.97035067910     IErMin= 4 ErrMin= 2.67D-03
 ErrMax= 2.67D-03  0.00D+00 EMaxC= 1.00D-01 BMatC= 1.05D-02 BMatP= 3.85D-02
 IDIUse=3 WtCom= 9.73D-01 WtEn= 2.67D-02
 Coeff-Com:  0.835D-02 0.132D+00 0.362D+00 0.497D+00
 Coeff-En:   0.000D+00 0.000D+00 0.200D+00 0.800D+00
 Coeff:      0.812D-02 0.128D+00 0.358D+00 0.505D+00
 Gap=     0.181 Goal=   None    Shift=    0.000
 RMSDP=8.56D-04 MaxDP=9.77D-02 DE=-2.62D-02 OVMax= 3.41D-02

 Cycle   5  Pass 1  IDiag  1:
 RMSU=  5.79D-04    CP:  9.81D-01  9.76D-02  8.68D-01  7.23D-01
 CalDSu:  requested number of processors reduced to:  16 ShMem   4 Linda.
 E= -1219.97726241414     Delta-E=       -0.006911735043 Rises=F Damp=F
 DIIS: error= 1.09D-03 at cycle   5 NSaved=   5.
 NSaved= 5 IEnMin= 5 EnMin= -1219.97726241414     IErMin= 5 ErrMin= 1.09D-03
 ErrMax= 1.09D-03  0.00D+00 EMaxC= 1.00D-01 BMatC= 2.28D-03 BMatP= 1.05D-02
 IDIUse=3 WtCom= 9.89D-01 WtEn= 1.09D-02
 Coeff-Com: -0.444D-02 0.341D-01 0.167D+00 0.358D+00 0.445D+00
 Coeff-En:   0.000D+00 0.000D+00 0.000D+00 0.168D+00 0.832D+00
 Coeff:     -0.439D-02 0.338D-01 0.166D+00 0.356D+00 0.449D+00
 Gap=     0.166 Goal=   None    Shift=    0.000
 RMSDP=3.24D-04 MaxDP=3.98D-02 DE=-6.91D-03 OVMax= 1.32D-02

 Cycle   6  Pass 1  IDiag  1:
 RMSU=  2.07D-04    CP:  9.80D-01  9.68D-02  8.75D-01  6.78D-01  6.10D-01
 CalDSu:  requested number of processors reduced to:  16 ShMem   4 Linda.
 E= -1219.97897680604     Delta-E=       -0.001714391897 Rises=F Damp=F
 DIIS: error= 2.14D-04 at cycle   6 NSaved=   6.
 NSaved= 6 IEnMin= 6 EnMin= -1219.97897680604     IErMin= 6 ErrMin= 2.14D-04
 ErrMax= 2.14D-04  0.00D+00 EMaxC= 1.00D-01 BMatC= 8.90D-05 BMatP= 2.28D-03
 IDIUse=3 WtCom= 9.98D-01 WtEn= 2.14D-03
 Coeff-Com: -0.271D-02 0.788D-02 0.582D-01 0.145D+00 0.239D+00 0.553D+00
 Coeff-En:   0.000D+00 0.000D+00 0.000D+00 0.000D+00 0.000D+00 0.100D+01
 Coeff:     -0.271D-02 0.786D-02 0.580D-01 0.144D+00 0.239D+00 0.554D+00
 Gap=     0.166 Goal=   None    Shift=    0.000
 RMSDP=1.18D-04 MaxDP=2.91D-02 DE=-1.71D-03 OVMax= 1.91D-03

 Cycle   7  Pass 1  IDiag  1:
 RMSU=  7.30D-05    CP:  9.78D-01  9.62D-02  8.74D-01  6.94D-01  5.78D-01
                    CP:  7.35D-01
 CalDSu:  requested number of processors reduced to:  16 ShMem   4 Linda.
 E= -1219.97903589496     Delta-E=       -0.000059088922 Rises=F Damp=F
 DIIS: error= 6.81D-05 at cycle   7 NSaved=   7.
 NSaved= 7 IEnMin= 7 EnMin= -1219.97903589496     IErMin= 7 ErrMin= 6.81D-05
 ErrMax= 6.81D-05  0.00D+00 EMaxC= 1.00D-01 BMatC= 1.57D-05 BMatP= 8.90D-05
 IDIUse=1 WtCom= 1.00D+00 WtEn= 0.00D+00
 Coeff-Com: -0.106D-02 0.735D-03 0.174D-01 0.508D-01 0.101D+00 0.341D+00
 Coeff-Com:  0.491D+00
 Coeff:     -0.106D-02 0.735D-03 0.174D-01 0.508D-01 0.101D+00 0.341D+00
 Coeff:      0.491D+00
 Gap=     0.166 Goal=   None    Shift=    0.000
 RMSDP=4.53D-05 MaxDP=1.02D-02 DE=-5.91D-05 OVMax= 7.96D-04

 Cycle   8  Pass 1  IDiag  1:
 RMSU=  2.70D-05    CP:  9.77D-01  9.55D-02  8.74D-01  6.94D-01  5.98D-01
                    CP:  7.33D-01  7.90D-01
 CalDSu:  requested number of processors reduced to:  16 ShMem   4 Linda.
 E= -1219.97904739768     Delta-E=       -0.000011502718 Rises=F Damp=F
 DIIS: error= 1.75D-05 at cycle   8 NSaved=   8.
 NSaved= 8 IEnMin= 8 EnMin= -1219.97904739768     IErMin= 8 ErrMin= 1.75D-05
 ErrMax= 1.75D-05  0.00D+00 EMaxC= 1.00D-01 BMatC= 7.80D-07 BMatP= 1.57D-05
 IDIUse=1 WtCom= 1.00D+00 WtEn= 0.00D+00
 Coeff-Com: -0.118D-03-0.359D-03 0.290D-02 0.105D-01 0.245D-01 0.102D+00
 Coeff-Com:  0.236D+00 0.625D+00
 Coeff:     -0.118D-03-0.359D-03 0.290D-02 0.105D-01 0.245D-01 0.102D+00
 Coeff:      0.236D+00 0.625D+00
 Gap=     0.166 Goal=   None    Shift=    0.000
 RMSDP=1.65D-05 MaxDP=4.64D-03 DE=-1.15D-05 OVMax= 2.26D-04

 Cycle   9  Pass 1  IDiag  1:
 RMSU=  9.09D-06    CP:  9.77D-01  9.53D-02  8.74D-01  6.93D-01  5.99D-01
                    CP:  7.46D-01  8.61D-01  8.19D-01
 CalDSu:  requested number of processors reduced to:  16 ShMem   4 Linda.
 E= -1219.97904793213     Delta-E=       -0.000000534455 Rises=F Damp=F
 DIIS: error= 8.07D-06 at cycle   9 NSaved=   9.
 NSaved= 9 IEnMin= 9 EnMin= -1219.97904793213     IErMin= 9 ErrMin= 8.07D-06
 ErrMax= 8.07D-06  0.00D+00 EMaxC= 1.00D-01 BMatC= 1.56D-07 BMatP= 7.80D-07
 IDIUse=1 WtCom= 1.00D+00 WtEn= 0.00D+00
 Coeff-Com:  0.361D-04-0.321D-03 0.193D-03 0.177D-02 0.568D-02 0.294D-01
 Coeff-Com:  0.953D-01 0.377D+00 0.491D+00
 Coeff:      0.361D-04-0.321D-03 0.193D-03 0.177D-02 0.568D-02 0.294D-01
 Coeff:      0.953D-01 0.377D+00 0.491D+00
 Gap=     0.166 Goal=   None    Shift=    0.000
 RMSDP=3.90D-06 MaxDP=6.98D-04 DE=-5.34D-07 OVMax= 1.07D-04

 Cycle  10  Pass 1  IDiag  1:
 RMSU=  2.06D-06    CP:  9.77D-01  9.53D-02  8.74D-01  6.93D-01  5.97D-01
                    CP:  7.48D-01  8.67D-01  8.29D-01  9.46D-01
 CalDSu:  requested number of processors reduced to:  16 ShMem   4 Linda.
 E= -1219.97904804528     Delta-E=       -0.000000113147 Rises=F Damp=F
 DIIS: error= 3.65D-06 at cycle  10 NSaved=  10.
 NSaved=10 IEnMin=10 EnMin= -1219.97904804528     IErMin=10 ErrMin= 3.65D-06
 ErrMax= 3.65D-06  0.00D+00 EMaxC= 1.00D-01 BMatC= 2.26D-08 BMatP= 1.56D-07
 IDIUse=1 WtCom= 1.00D+00 WtEn= 0.00D+00
 Coeff-Com:  0.355D-04-0.162D-03-0.122D-03 0.134D-03 0.123D-02 0.806D-02
 Coeff-Com:  0.349D-01 0.173D+00 0.315D+00 0.468D+00
 Coeff:      0.355D-04-0.162D-03-0.122D-03 0.134D-03 0.123D-02 0.806D-02
 Coeff:      0.349D-01 0.173D+00 0.315D+00 0.468D+00
 Gap=     0.166 Goal=   None    Shift=    0.000
 RMSDP=1.21D-06 MaxDP=2.73D-04 DE=-1.13D-07 OVMax= 4.77D-05

 Cycle  11  Pass 1  IDiag  1:
 RMSU=  6.54D-07    CP:  9.77D-01  9.53D-02  8.74D-01  6.93D-01  5.97D-01
                    CP:  7.48D-01  8.71D-01  8.45D-01  9.24D-01  7.45D-01
 CalDSu:  requested number of processors reduced to:  16 ShMem   4 Linda.
 E= -1219.97904805996     Delta-E=       -0.000000014678 Rises=F Damp=F
 DIIS: error= 1.19D-06 at cycle  11 NSaved=  11.
 NSaved=11 IEnMin=11 EnMin= -1219.97904805996     IErMin=11 ErrMin= 1.19D-06
 ErrMax= 1.19D-06  0.00D+00 EMaxC= 1.00D-01 BMatC= 2.61D-09 BMatP= 2.26D-08
 IDIUse=1 WtCom= 1.00D+00 WtEn= 0.00D+00
 Coeff-Com:  0.165D-04-0.518D-04-0.101D-03-0.187D-03-0.561D-04 0.802D-03
 Coeff-Com:  0.745D-02 0.525D-01 0.122D+00 0.293D+00 0.525D+00
 Coeff:      0.165D-04-0.518D-04-0.101D-03-0.187D-03-0.561D-04 0.802D-03
 Coeff:      0.745D-02 0.525D-01 0.122D+00 0.293D+00 0.525D+00
 Gap=     0.166 Goal=   None    Shift=    0.000
 RMSDP=7.67D-07 MaxDP=1.70D-04 DE=-1.47D-08 OVMax= 1.33D-05

 Cycle  12  Pass 1  IDiag  1:
 RMSU=  2.53D-07    CP:  9.77D-01  9.52D-02  8.74D-01  6.92D-01  5.97D-01
                    CP:  7.47D-01  8.73D-01  8.50D-01  9.42D-01  7.77D-01
                    CP:  7.46D-01
 CalDSu:  requested number of processors reduced to:  16 ShMem   4 Linda.
 E= -1219.97904806180     Delta-E=       -0.000000001839 Rises=F Damp=F
 DIIS: error= 3.55D-07 at cycle  12 NSaved=  12.
 NSaved=12 IEnMin=12 EnMin= -1219.97904806180     IErMin=12 ErrMin= 3.55D-07
 ErrMax= 3.55D-07  0.00D+00 EMaxC= 1.00D-01 BMatC= 2.97D-10 BMatP= 2.61D-09
 IDIUse=1 WtCom= 1.00D+00 WtEn= 0.00D+00
 Coeff-Com:  0.484D-05-0.126D-04-0.469D-04-0.129D-03-0.170D-03-0.410D-03
 Coeff-Com:  0.367D-03 0.120D-01 0.369D-01 0.124D+00 0.317D+00 0.511D+00
 Coeff:      0.484D-05-0.126D-04-0.469D-04-0.129D-03-0.170D-03-0.410D-03
 Coeff:      0.367D-03 0.120D-01 0.369D-01 0.124D+00 0.317D+00 0.511D+00
 Gap=     0.166 Goal=   None    Shift=    0.000
 RMSDP=1.70D-07 MaxDP=3.62D-05 DE=-1.84D-09 OVMax= 4.25D-06

 Cycle  13  Pass 1  IDiag  1:
 RMSU=  8.72D-08    CP:  9.77D-01  9.52D-02  8.74D-01  6.92D-01  5.97D-01
                    CP:  7.47D-01  8.73D-01  8.53D-01  9.43D-01  7.75D-01
                    CP:  7.96D-01  7.27D-01
 CalDSu:  requested number of processors reduced to:  16 ShMem   4 Linda.
 E= -1219.97904806199     Delta-E=       -0.000000000196 Rises=F Damp=F
 DIIS: error= 8.98D-08 at cycle  13 NSaved=  13.
 NSaved=13 IEnMin=13 EnMin= -1219.97904806199     IErMin=13 ErrMin= 8.98D-08
 ErrMax= 8.98D-08  0.00D+00 EMaxC= 1.00D-01 BMatC= 2.44D-11 BMatP= 2.97D-10
 IDIUse=1 WtCom= 1.00D+00 WtEn= 0.00D+00
 Coeff-Com: -0.492D-06 0.680D-06-0.918D-05-0.330D-04-0.622D-04-0.241D-03
 Coeff-Com: -0.736D-03-0.671D-03 0.136D-02 0.206D-01 0.868D-01 0.266D+00
 Coeff-Com:  0.627D+00
 Coeff:     -0.492D-06 0.680D-06-0.918D-05-0.330D-04-0.622D-04-0.241D-03
 Coeff:     -0.736D-03-0.671D-03 0.136D-02 0.206D-01 0.868D-01 0.266D+00
 Coeff:      0.627D+00
 Gap=     0.166 Goal=   None    Shift=    0.000
 RMSDP=5.05D-08 MaxDP=1.56D-05 DE=-1.96D-10 OVMax= 1.50D-06

 Cycle  14  Pass 1  IDiag  1:
 RMSU=  2.66D-08    CP:  9.77D-01  9.52D-02  8.74D-01  6.92D-01  5.97D-01
                    CP:  7.47D-01  8.73D-01  8.53D-01  9.46D-01  7.80D-01
                    CP:  7.98D-01  7.24D-01  9.54D-01
 CalDSu:  requested number of processors reduced to:  16 ShMem   4 Linda.
 E= -1219.97904806204     Delta-E=       -0.000000000042 Rises=F Damp=F
 DIIS: error= 2.96D-08 at cycle  14 NSaved=  14.
 NSaved=14 IEnMin=14 EnMin= -1219.97904806204     IErMin=14 ErrMin= 2.96D-08
 ErrMax= 2.96D-08  0.00D+00 EMaxC= 1.00D-01 BMatC= 2.29D-12 BMatP= 2.44D-11
 IDIUse=1 WtCom= 1.00D+00 WtEn= 0.00D+00
 Coeff-Com: -0.626D-06 0.125D-05-0.319D-05-0.126D-04-0.285D-04-0.123D-03
 Coeff-Com: -0.466D-03-0.118D-02-0.190D-02 0.298D-02 0.264D-01 0.110D+00
 Coeff-Com:  0.337D+00 0.528D+00
 Coeff:     -0.626D-06 0.125D-05-0.319D-05-0.126D-04-0.285D-04-0.123D-03
 Coeff:     -0.466D-03-0.118D-02-0.190D-02 0.298D-02 0.264D-01 0.110D+00
 Coeff:      0.337D+00 0.528D+00
 Gap=     0.166 Goal=   None    Shift=    0.000
 RMSDP=2.20D-08 MaxDP=3.85D-06 DE=-4.18D-11 OVMax= 3.55D-07

 Cycle  15  Pass 1  IDiag  1:
 RMSU=  1.02D-08    CP:  9.77D-01  9.52D-02  8.74D-01  6.92D-01  5.97D-01
                    CP:  7.47D-01  8.73D-01  8.53D-01  9.45D-01  7.80D-01
                    CP:  8.07D-01  7.36D-01  9.66D-01  9.89D-01
 CalDSu:  requested number of processors reduced to:  16 ShMem   4 Linda.
 E= -1219.97904806192     Delta-E=        0.000000000112 Rises=F Damp=F
 DIIS: error= 9.80D-09 at cycle  15 NSaved=  15.
 NSaved=15 IEnMin=14 EnMin= -1219.97904806204     IErMin=15 ErrMin= 9.80D-09
 ErrMax= 9.80D-09  0.00D+00 EMaxC= 1.00D-01 BMatC= 2.14D-13 BMatP= 2.29D-12
 IDIUse=1 WtCom= 1.00D+00 WtEn= 0.00D+00
 Coeff-Com: -0.247D-06 0.532D-06-0.661D-06-0.252D-05-0.698D-05-0.331D-04
 Coeff-Com: -0.137D-03-0.414D-03-0.103D-02-0.851D-03 0.269D-02 0.209D-01
 Coeff-Com:  0.856D-01 0.263D+00 0.630D+00
 Coeff:     -0.247D-06 0.532D-06-0.661D-06-0.252D-05-0.698D-05-0.331D-04
 Coeff:     -0.137D-03-0.414D-03-0.103D-02-0.851D-03 0.269D-02 0.209D-01
 Coeff:      0.856D-01 0.263D+00 0.630D+00
 Gap=     0.166 Goal=   None    Shift=    0.000
 RMSDP=6.24D-09 MaxDP=1.22D-06 DE= 1.12D-10 OVMax= 1.49D-07

 Cycle  16  Pass 1  IDiag  1:
 RMSU=  2.93D-09    CP:  9.77D-01  9.52D-02  8.74D-01  6.92D-01  5.97D-01
                    CP:  7.47D-01  8.73D-01  8.53D-01  9.45D-01  7.80D-01
                    CP:  8.08D-01  7.41D-01  9.88D-01  9.78D-01  8.89D-01
 CalDSu:  requested number of processors reduced to:  16 ShMem   4 Linda.
 E= -1219.97904806196     Delta-E=       -0.000000000040 Rises=F Damp=F
 DIIS: error= 3.92D-09 at cycle  16 NSaved=  16.
 NSaved=16 IEnMin=14 EnMin= -1219.97904806204     IErMin=16 ErrMin= 3.92D-09
 ErrMax= 3.92D-09  0.00D+00 EMaxC= 1.00D-01 BMatC= 3.15D-14 BMatP= 2.14D-13
 IDIUse=1 WtCom= 1.00D+00 WtEn= 0.00D+00
 Coeff-Com: -0.650D-07 0.154D-06-0.996D-07-0.254D-06-0.112D-05-0.576D-05
 Coeff-Com: -0.272D-04-0.103D-03-0.397D-03-0.883D-03-0.158D-02-0.925D-03
 Coeff-Com:  0.107D-01 0.846D-01 0.346D+00 0.563D+00
 Coeff:     -0.650D-07 0.154D-06-0.996D-07-0.254D-06-0.112D-05-0.576D-05
 Coeff:     -0.272D-04-0.103D-03-0.397D-03-0.883D-03-0.158D-02-0.925D-03
 Coeff:      0.107D-01 0.846D-01 0.346D+00 0.563D+00
 Gap=     0.166 Goal=   None    Shift=    0.000
 RMSDP=1.98D-09 MaxDP=3.89D-07 DE=-3.96D-11 OVMax= 5.74D-08

 SCF Done:  E(RB3LYP) =  -1219.97904806     A.U. after   16 cycles
            NFock= 16  Conv=0.20D-08     -V/T= 2.0037
 KE= 1.215537391222D+03 PE=-6.525288157188D+03 EE= 2.280159274814D+03
 Leave Link  502 at Wed Feb  6 11:14:26 2019, MaxMem=    33554432 cpu:      2244.4
 (Enter /global/apps/Gaussian/09.d01/l601.exe)
 Copying SCF densities to generalized density rwf, IOpCl= 0 IROHF=0.

 **********************************************************************

            Population analysis using the SCF density.

 **********************************************************************

 Orbital symmetries:
       Occupied  (A) (A) (A) (A) (A) (A) (A) (A) (A) (A) (A) (A)
                 (A) (A) (A) (A) (A) (A) (A) (A) (A) (A) (A) (A)
                 (A) (A) (A) (A) (A) (A) (A) (A) (A) (A) (A) (A)
                 (A) (A) (A) (A) (A) (A) (A) (A) (A) (A) (A) (A)
                 (A) (A) (A) (A) (A) (A) (A) (A) (A) (A) (A) (A)
                 (A) (A) (A) (A) (A) (A) (A) (A) (A) (A) (A) (A)
                 (A) (A) (A) (A) (A) (A) (A) (A) (A) (A) (A) (A)
       Virtual   (A) (A) (A) (A) (A) (A) (A) (A) (A) (A) (A) (A)
                 (A) (A) (A) (A) (A) (A) (A) (A) (A) (A) (A) (A)
                 (A) (A) (A) (A) (A) (A) (A) (A) (A) (A) (A) (A)
                 (A) (A) (A) (A) (A) (A) (A) (A) (A) (A) (A) (A)
                 (A) (A) (A) (A) (A) (A) (A) (A) (A) (A) (A) (A)
                 (A) (A) (A) (A) (A) (A) (A) (A) (A) (A) (A) (A)
                 (A) (A) (A) (A) (A) (A) (A) (A) (A) (A) (A) (A)
                 (A) (A) (A) (A) (A) (A) (A) (A) (A) (A) (A) (A)
                 (A) (A) (A) (A) (A) (A) (A) (A) (A) (A) (A) (A)
                 (A) (A) (A) (A) (A) (A) (A) (A) (A) (A) (A) (A)
                 (A) (A) (A) (A) (A) (A) (A) (A) (A) (A) (A) (A)
                 (A) (A) (A) (A) (A) (A) (A) (A) (A) (A) (A) (A)
                 (A) (A) (A) (A) (A) (A) (A) (A) (A) (A) (A) (A)
                 (A) (A) (A) (A) (A) (A) (A) (A) (A) (A) (A) (A)
                 (A) (A) (A) (A) (A) (A) (A) (A) (A) (A) (A) (A)
                 (A) (A) (A) (A) (A) (A) (A) (A) (A) (A) (A) (A)
                 (A) (A) (A) (A) (A) (A) (A) (A) (A) (A) (A) (A)
                 (A) (A) (A) (A) (A) (A) (A) (A) (A) (A) (A) (A)
                 (A) (A) (A) (A) (A) (A) (A) (A) (A) (A) (A) (A)
                 (A) (A) (A) (A) (A) (A) (A) (A) (A) (A) (A) (A)
                 (A) (A) (A) (A) (A) (A) (A) (A) (A) (A) (A) (A)
                 (A) (A) (A) (A) (A) (A) (A) (A) (A) (A) (A) (A)
                 (A) (A) (A) (A) (A) (A) (A) (A) (A) (A) (A) (A)
                 (A) (A) (A) (A) (A) (A) (A) (A) (A) (A) (A) (A)
                 (A) (A) (A) (A) (A) (A) (A) (A) (A) (A) (A) (A)
                 (A) (A) (A) (A) (A) (A) (A) (A) (A) (A) (A) (A)
                 (A) (A) (A) (A) (A) (A) (A) (A) (A) (A) (A) (A)
                 (A) (A) (A) (A) (A) (A) (A) (A) (A) (A) (A) (A)
                 (A) (A) (A) (A) (A) (A) (A) (A) (A) (A) (A) (A)
                 (A) (A) (A) (A) (A) (A) (A) (A) (A) (A) (A) (A)
                 (A) (A) (A) (A) (A) (A) (A) (A) (A) (A) (A) (A)
                 (A) (A) (A) (A) (A) (A) (A) (A) (A) (A) (A) (A)
                 (A) (A) (A) (A) (A) (A) (A) (A) (A) (A) (A) (A)
                 (A) (A) (A) (A) (A) (A) (A) (A) (A) (A) (A) (A)
                 (A) (A) (A) (A) (A) (A) (A) (A) (A) (A) (A) (A)
                 (A) (A) (A) (A) (A) (A) (A) (A) (A) (A) (A) (A)
                 (A) (A) (A) (A) (A) (A) (A) (A) (A) (A) (A) (A)
                 (A) (A) (A) (A) (A) (A) (A) (A) (A) (A) (A) (A)
                 (A) (A) (A) (A) (A) (A) (A) (A) (A) (A) (A) (A)
                 (A) (A) (A) (A) (A) (A) (A) (A) (A) (A) (A) (A)
                 (A) (A) (A) (A) (A) (A) (A) (A) (A) (A) (A) (A)
                 (A) (A) (A) (A) (A) (A) (A) (A) (A) (A) (A) (A)
                 (A) (A) (A) (A) (A) (A) (A) (A) (A) (A) (A) (A)
                 (A) (A) (A) (A) (A) (A) (A) (A) (A) (A) (A) (A)
                 (A) (A) (A) (A) (A) (A) (A) (A) (A) (A) (A) (A)
                 (A) (A) (A) (A) (A) (A) (A) (A) (A) (A) (A) (A)
                 (A) (A) (A) (A) (A) (A) (A) (A) (A) (A) (A) (A)
                 (A) (A) (A) (A) (A) (A) (A) (A) (A) (A) (A) (A)
                 (A) (A) (A) (A) (A) (A) (A) (A) (A) (A) (A) (A)
                 (A) (A) (A) (A) (A) (A) (A) (A) (A) (A) (A) (A)
                 (A) (A) (A) (A) (A) (A) (A) (A) (A) (A) (A) (A)
                 (A) (A) (A) (A) (A) (A) (A) (A) (A) (A) (A) (A)
                 (A) (A) (A) (A) (A) (A) (A) (A) (A) (A) (A) (A)
                 (A) (A) (A) (A) (A) (A) (A) (A) (A)
 The electronic state is 1-A.
 Alpha  occ. eigenvalues --  -18.95028 -18.92793 -18.92723 -18.91683 -18.91207
 Alpha  occ. eigenvalues --  -18.90372 -18.89187 -18.89067 -18.88607 -18.87714
 Alpha  occ. eigenvalues --  -18.87586 -10.08037 -10.07071 -10.04607 -10.04315
 Alpha  occ. eigenvalues --  -10.03664  -9.99675  -9.99502  -9.99096  -9.98982
 Alpha  occ. eigenvalues --   -9.97202  -0.87104  -0.84507  -0.83749  -0.83164
 Alpha  occ. eigenvalues --   -0.81236  -0.80238  -0.80142  -0.78775  -0.77700
 Alpha  occ. eigenvalues --   -0.76060  -0.74879  -0.65940  -0.58563  -0.56405
 Alpha  occ. eigenvalues --   -0.54124  -0.45710  -0.42485  -0.41304  -0.37465
 Alpha  occ. eigenvalues --   -0.34309  -0.33355  -0.32493  -0.32258  -0.31695
 Alpha  occ. eigenvalues --   -0.30478  -0.30133  -0.28932  -0.28495  -0.28100
 Alpha  occ. eigenvalues --   -0.27105  -0.26193  -0.25385  -0.24696  -0.23174
 Alpha  occ. eigenvalues --   -0.22237  -0.22004  -0.21922  -0.21203  -0.21006
 Alpha  occ. eigenvalues --   -0.20282  -0.19875  -0.18698  -0.18560  -0.18400
 Alpha  occ. eigenvalues --   -0.18076  -0.17167  -0.15044  -0.13070  -0.12167
 Alpha  occ. eigenvalues --   -0.11405  -0.11233  -0.10836  -0.10011  -0.09972
 Alpha  occ. eigenvalues --   -0.08777  -0.07936  -0.07304  -0.06827  -0.06534
 Alpha  occ. eigenvalues --   -0.06120  -0.05802  -0.05069  -0.03677
 Alpha virt. eigenvalues --    0.12916   0.15967   0.17060   0.18385   0.18942
 Alpha virt. eigenvalues --    0.19677   0.20328   0.20761   0.20968   0.21799
 Alpha virt. eigenvalues --    0.22134   0.22845   0.23619   0.24163   0.24678
 Alpha virt. eigenvalues --    0.25066   0.25324   0.25800   0.26054   0.27320
 Alpha virt. eigenvalues --    0.27908   0.28278   0.28782   0.29500   0.29752
 Alpha virt. eigenvalues --    0.29891   0.30388   0.30820   0.31069   0.31199
 Alpha virt. eigenvalues --    0.31443   0.32005   0.32655   0.32774   0.33266
 Alpha virt. eigenvalues --    0.33424   0.34151   0.34614   0.34668   0.35035
 Alpha virt. eigenvalues --    0.35380   0.35752   0.36267   0.36514   0.36864
 Alpha virt. eigenvalues --    0.36983   0.37150   0.37569   0.37670   0.37902
 Alpha virt. eigenvalues --    0.38466   0.38546   0.38871   0.39250   0.39450
 Alpha virt. eigenvalues --    0.39738   0.40009   0.40233   0.40567   0.40952
 Alpha virt. eigenvalues --    0.41038   0.41419   0.41964   0.42297   0.42549
 Alpha virt. eigenvalues --    0.43031   0.43165   0.43422   0.43886   0.44354
 Alpha virt. eigenvalues --    0.44549   0.44845   0.45311   0.45540   0.45733
 Alpha virt. eigenvalues --    0.46062   0.46426   0.46740   0.47058   0.47346
 Alpha virt. eigenvalues --    0.47929   0.48226   0.48511   0.48815   0.49055
 Alpha virt. eigenvalues --    0.49513   0.49991   0.50300   0.50800   0.50991
 Alpha virt. eigenvalues --    0.51187   0.51335   0.52741   0.52773   0.53284
 Alpha virt. eigenvalues --    0.54309   0.54687   0.54938   0.55121   0.56012
 Alpha virt. eigenvalues --    0.56270   0.56809   0.57534   0.58656   0.59034
 Alpha virt. eigenvalues --    0.60140   0.61003   0.61312   0.61565   0.62040
 Alpha virt. eigenvalues --    0.62454   0.63484   0.64149   0.64769   0.65209
 Alpha virt. eigenvalues --    0.65763   0.65922   0.66362   0.66848   0.67243
 Alpha virt. eigenvalues --    0.67694   0.68744   0.69693   0.70479   0.70590
 Alpha virt. eigenvalues --    0.71480   0.71681   0.72331   0.72823   0.73107
 Alpha virt. eigenvalues --    0.73639   0.74232   0.75131   0.75874   0.76504
 Alpha virt. eigenvalues --    0.76781   0.77337   0.78342   0.78701   0.78971
 Alpha virt. eigenvalues --    0.79790   0.80412   0.80789   0.80900   0.82120
 Alpha virt. eigenvalues --    0.82600   0.82632   0.83387   0.83752   0.84288
 Alpha virt. eigenvalues --    0.84591   0.84877   0.85344   0.86119   0.86362
 Alpha virt. eigenvalues --    0.86758   0.87291   0.87564   0.88012   0.88287
 Alpha virt. eigenvalues --    0.89062   0.89878   0.90065   0.90542   0.91515
 Alpha virt. eigenvalues --    0.91990   0.92105   0.93576   0.94771   0.95362
 Alpha virt. eigenvalues --    0.95861   0.96421   0.96983   0.98073   0.98743
 Alpha virt. eigenvalues --    0.99174   0.99584   0.99907   1.00325   1.00677
 Alpha virt. eigenvalues --    1.01314   1.02203   1.02556   1.03314   1.03364
 Alpha virt. eigenvalues --    1.04491   1.05635   1.06400   1.07385   1.07824
 Alpha virt. eigenvalues --    1.08461   1.08768   1.09278   1.09359   1.10446
 Alpha virt. eigenvalues --    1.10877   1.11272   1.11616   1.12221   1.12681
 Alpha virt. eigenvalues --    1.12759   1.13279   1.13966   1.14276   1.14576
 Alpha virt. eigenvalues --    1.15025   1.15759   1.16526   1.17203   1.18040
 Alpha virt. eigenvalues --    1.18901   1.19275   1.19762   1.20640   1.21929
 Alpha virt. eigenvalues --    1.22062   1.23030   1.23298   1.24322   1.25237
 Alpha virt. eigenvalues --    1.25422   1.26906   1.27124   1.27728   1.27941
 Alpha virt. eigenvalues --    1.28238   1.28923   1.29388   1.29919   1.30307
 Alpha virt. eigenvalues --    1.30411   1.30982   1.31733   1.32037   1.32274
 Alpha virt. eigenvalues --    1.33402   1.33925   1.34349   1.34737   1.35321
 Alpha virt. eigenvalues --    1.35965   1.36545   1.37576   1.38820   1.39583
 Alpha virt. eigenvalues --    1.40107   1.40410   1.41297   1.41663   1.41911
 Alpha virt. eigenvalues --    1.42432   1.42831   1.43927   1.44584   1.45057
 Alpha virt. eigenvalues --    1.45797   1.46237   1.47713   1.48829   1.49457
 Alpha virt. eigenvalues --    1.50292   1.50378   1.50863   1.51536   1.52182
 Alpha virt. eigenvalues --    1.52632   1.53450   1.53551   1.54672   1.55213
 Alpha virt. eigenvalues --    1.56058   1.56718   1.57261   1.58085   1.58763
 Alpha virt. eigenvalues --    1.59544   1.60299   1.60883   1.62500   1.63123
 Alpha virt. eigenvalues --    1.64265   1.64466   1.65590   1.66288   1.67057
 Alpha virt. eigenvalues --    1.67249   1.68288   1.68830   1.69162   1.70289
 Alpha virt. eigenvalues --    1.71449   1.71555   1.71773   1.73479   1.74264
 Alpha virt. eigenvalues --    1.75074   1.75649   1.76453   1.77580   1.78075
 Alpha virt. eigenvalues --    1.79064   1.80662   1.81291   1.81976   1.82705
 Alpha virt. eigenvalues --    1.83916   1.84802   1.86316   1.86912   1.87804
 Alpha virt. eigenvalues --    1.90059   1.90647   1.91104   1.92088   1.92424
 Alpha virt. eigenvalues --    1.93156   1.94043   1.95532   1.97205   1.99520
 Alpha virt. eigenvalues --    2.00625   2.01404   2.02316   2.03077   2.03835
 Alpha virt. eigenvalues --    2.04344   2.04796   2.05254   2.05968   2.06158
 Alpha virt. eigenvalues --    2.07949   2.08227   2.08787   2.09796   2.10023
 Alpha virt. eigenvalues --    2.10693   2.12229   2.14188   2.15303   2.16602
 Alpha virt. eigenvalues --    2.17860   2.18181   2.19348   2.20424   2.21159
 Alpha virt. eigenvalues --    2.21990   2.27322   2.28913   2.29413   2.32385
 Alpha virt. eigenvalues --    2.34434   2.40423   2.41345   2.42865   2.43387
 Alpha virt. eigenvalues --    2.44702   2.45647   2.46356   2.47519   2.47879
 Alpha virt. eigenvalues --    2.48576   2.49609   2.50468   2.52605   2.53436
 Alpha virt. eigenvalues --    2.53866   2.54487   2.56461   2.57895   2.59193
 Alpha virt. eigenvalues --    2.63041   2.64216   2.66412   2.68039   2.71100
 Alpha virt. eigenvalues --    2.74603   2.76464   2.78656   2.80195   2.80856
 Alpha virt. eigenvalues --    2.81323   2.83075   2.84613   2.85641   2.86891
 Alpha virt. eigenvalues --    2.87736   2.93129   2.97671   2.99276   3.01317
 Alpha virt. eigenvalues --    3.02842   3.03888   3.06788   3.07833   3.08955
 Alpha virt. eigenvalues --    3.11388   3.12692   3.15915   3.16417   3.16918
 Alpha virt. eigenvalues --    3.18661   3.20047   3.21021   3.21271   3.23246
 Alpha virt. eigenvalues --    3.24056   3.24488   3.25516   3.27387   3.29282
 Alpha virt. eigenvalues --    3.31967   3.34728   3.35704   3.38547   3.39728
 Alpha virt. eigenvalues --    3.43313   3.44909   3.46821   3.47612   3.49585
 Alpha virt. eigenvalues --    3.51327   3.52373   3.52875   3.54433   3.57881
 Alpha virt. eigenvalues --    3.58100   3.59257   3.60810   3.62416   3.62689
 Alpha virt. eigenvalues --    3.63108   3.64241   3.67154   3.68130   3.69923
 Alpha virt. eigenvalues --    3.70625   3.71618   3.72025   3.73589   3.74705
 Alpha virt. eigenvalues --    3.75084   3.77507   3.78455   3.79294   3.80441
 Alpha virt. eigenvalues --    3.82503   3.83372   3.84757   3.86393   3.86956
 Alpha virt. eigenvalues --    3.88006   3.89069   3.90712   3.91201   3.92341
 Alpha virt. eigenvalues --    3.92735   3.94438   3.95947   3.96418   3.97083
 Alpha virt. eigenvalues --    3.97237   4.00548   4.01361   4.01823   4.02042
 Alpha virt. eigenvalues --    4.02487   4.03307   4.04428   4.04833   4.05542
 Alpha virt. eigenvalues --    4.06115   4.06846   4.08189   4.08859   4.09733
 Alpha virt. eigenvalues --    4.11213   4.13099   4.13463   4.14283   4.14538
 Alpha virt. eigenvalues --    4.15605   4.16921   4.17735   4.18785   4.19416
 Alpha virt. eigenvalues --    4.20303   4.20730   4.21103   4.23452   4.23948
 Alpha virt. eigenvalues --    4.24402   4.27312   4.28468   4.29569   4.30161
 Alpha virt. eigenvalues --    4.31317   4.32223   4.33149   4.33974   4.34758
 Alpha virt. eigenvalues --    4.35979   4.37417   4.37986   4.40695   4.41508
 Alpha virt. eigenvalues --    4.42255   4.43811   4.44337   4.47190   4.47408
 Alpha virt. eigenvalues --    4.51233   4.52247   4.52775   4.53818   4.54959
 Alpha virt. eigenvalues --    4.55516   4.56700   4.58749   4.60820   4.62670
 Alpha virt. eigenvalues --    4.63142   4.64688   4.65797   4.66357   4.73790
 Alpha virt. eigenvalues --    4.76684   4.79427   4.89447   5.00417   5.09183
 Alpha virt. eigenvalues --    5.16270   5.17514   5.19187   5.24782   5.24983
 Alpha virt. eigenvalues --    5.25442   5.26558   5.27323   5.27994   5.30822
 Alpha virt. eigenvalues --    5.31818   5.33813   5.35137   5.36665   5.37998
 Alpha virt. eigenvalues --    5.46720   5.52840   5.56566   5.60037   5.65267
 Alpha virt. eigenvalues --    5.69539   5.72181   5.80882   5.87007   5.88181
 Alpha virt. eigenvalues --    5.88661   5.93837   5.95622   6.00257   6.10092
 Alpha virt. eigenvalues --    6.13454   6.23863   6.26864   6.27015   6.30701
 Alpha virt. eigenvalues --    6.30975   6.32685   6.33383   6.33694   7.00736
 Alpha virt. eigenvalues --    7.00919   7.06259   7.07466   7.08022   7.08927
 Alpha virt. eigenvalues --    7.09519   7.09549   7.10081   7.10741   7.10850
 Alpha virt. eigenvalues --    7.13234   7.13973   7.15736   7.16254   7.18699
 Alpha virt. eigenvalues --    7.19711   7.20563   7.22040   7.23244   7.27545
 Alpha virt. eigenvalues --    7.27776   7.29653   7.29782   7.31443   7.32590
 Alpha virt. eigenvalues --    7.32882   7.34999   7.35665   7.37265   7.38743
 Alpha virt. eigenvalues --    7.40679   7.41342   7.44208   7.44656   7.46556
 Alpha virt. eigenvalues --    7.48207   7.50842   7.51258   7.53545   7.53963
 Alpha virt. eigenvalues --    7.55396   7.56246   7.58750   7.59370   7.61779
 Alpha virt. eigenvalues --    7.66241   7.66903   7.71412   7.72154   7.73241
 Alpha virt. eigenvalues --    7.73521   7.76778   7.79019   7.84162  23.98400
 Alpha virt. eigenvalues --   24.05738  24.08705  24.15788  24.19201  24.30084
 Alpha virt. eigenvalues --   24.36537  24.39800  24.41660  24.54064  50.12336
 Alpha virt. eigenvalues --   50.13021  50.15103  50.15348  50.17637  50.23273
 Alpha virt. eigenvalues --   50.23294  50.24726  50.29036  50.30405  50.30803
          Condensed to atoms (all electrons):
               1          2          3          4          5          6
     1  C   17.020382  -0.285818  -7.341481   2.337587  -0.052296  -5.291700
     2  C   -0.285818  14.031459  -2.246120  -7.206147   0.376134  -1.558561
     3  C   -7.341481  -2.246120  21.981164  -0.144006   0.073346   2.116479
     4  C    2.337587  -7.206147  -0.144006  18.726384  -0.026138   0.527534
     5  H   -0.052296   0.376134   0.073346  -0.026138   0.519767   0.032124
     6  C   -5.291700  -1.558561   2.116479   0.527534   0.032124  10.787779
     7  C    2.247269  -0.471660 -10.182435   0.470299  -0.028965  -1.315187
     8  H    0.068606   0.047874   0.114159  -0.020812  -0.000251   0.033453
     9  C   -2.855527   3.583668   1.495982  -8.230435   0.003964  -0.644051
    10  H    0.005357   0.041241  -0.069191   0.249016  -0.008090   0.011166
    11  O    0.063671  -0.099913  -0.059107   0.102700  -0.003896   0.252856
    12  O   -0.002442   0.087813  -0.057999  -0.025710  -0.000230   0.243237
    13  H   -0.077271   0.025262   0.033114   0.001866   0.000125   0.007770
    14  O   -0.030548   0.028011   0.289501  -0.117562  -0.000283   0.017942
    15  H   -0.008074  -0.018789   0.123548  -0.006206  -0.000211   0.011788
    16  H    0.010140  -0.020403  -0.021930   0.097192   0.000000  -0.002065
    17  C    0.212031   0.072481  -0.698924  -0.232834  -0.000385  -0.119636
    18  C   -0.061157   0.066079   1.005938  -0.186925   0.000187   0.076527
    19  H   -0.000041   0.000163  -0.004948   0.000719   0.000000   0.000622
    20  H    0.042713  -0.001212  -0.042521   0.005195   0.000001  -0.000546
    21  C   -0.232707  -0.008761  -0.004064  -0.167737   0.000247   0.076393
    22  O   -0.024917  -0.032355   0.223843   0.022742   0.000174   0.048654
    23  O    0.005005   0.000898  -0.017778   0.091232  -0.000003   0.001241
    24  O   -0.003780   0.000248   0.001755  -0.008082   0.000000  -0.000255
    25  O    0.100097   0.007511  -0.076740   0.000424  -0.000002   0.016213
    26  H   -0.026344  -0.009292   0.020547   0.000705   0.000002   0.000643
    27  H    0.037071   0.009982  -0.047696  -0.001520   0.000001   0.001253
    28  O    0.000031  -0.000045  -0.001109   0.001613   0.000000   0.000010
    29  H   -0.000048   0.000085   0.000334  -0.002183   0.000000  -0.000010
    30  H    0.000019  -0.000001   0.000001   0.000027   0.000000   0.000000
    31  O   -0.000119  -0.000050  -0.000438  -0.001667   0.000000   0.000022
    32  H   -0.000016   0.000067   0.000491  -0.000109   0.000000  -0.000008
    33  H   -0.000068   0.000111  -0.000147  -0.000064   0.000000   0.000002
    34  O    0.043587  -0.056227  -0.065974   0.079662   0.000117   0.010815
    35  H    0.005791   0.021273   0.007253  -0.013269  -0.000027   0.000684
    36  H    0.029881   0.003108  -0.047454   0.113436  -0.000024   0.006239
    37  O   -0.016653   0.005057   0.011213  -0.001192   0.000158   0.037193
    38  H   -0.012370  -0.007881   0.003173  -0.001367  -0.000055   0.010980
    39  H   -0.025764   0.000617  -0.002738   0.001851  -0.000007   0.021199
               7          8          9         10         11         12
     1  C    2.247269   0.068606  -2.855527   0.005357   0.063671  -0.002442
     2  C   -0.471660   0.047874   3.583668   0.041241  -0.099913   0.087813
     3  C  -10.182435   0.114159   1.495982  -0.069191  -0.059107  -0.057999
     4  C    0.470299  -0.020812  -8.230435   0.249016   0.102700  -0.025710
     5  H   -0.028965  -0.000251   0.003964  -0.008090  -0.003896  -0.000230
     6  C   -1.315187   0.033453  -0.644051   0.011166   0.252856   0.243237
     7  C   18.707282   0.094272  -3.295523   0.054166   0.019160   0.031125
     8  H    0.094272   0.554210   0.022087   0.000149   0.000748  -0.006378
     9  C   -3.295523   0.022087  14.868835   0.067538   0.019888   0.009460
    10  H    0.054166   0.000149   0.067538   0.557647   0.000099   0.000036
    11  O    0.019160   0.000748   0.019888   0.000099   8.397137  -0.050906
    12  O    0.031125  -0.006378   0.009460   0.000036  -0.050906   8.512085
    13  H    0.359684  -0.000136   0.055264  -0.000438   0.000076  -0.000295
    14  O   -0.338869  -0.001772   0.185615   0.002762  -0.000051   0.000053
    15  H   -0.133928  -0.000531   0.398533  -0.001229  -0.000054  -0.000029
    16  H   -0.017734   0.000096  -0.010432  -0.000271  -0.000002  -0.000003
    17  C    0.629522   0.013974   0.003201   0.000500   0.000931  -0.002687
    18  C   -1.180849  -0.023440   0.269207   0.000246  -0.001099   0.004605
    19  H   -0.004234   0.000250   0.007585   0.000000   0.000000  -0.000014
    20  H    0.011946  -0.002134  -0.013441   0.000001   0.000031  -0.000473
    21  C    0.037248   0.002165   0.048648   0.000713   0.000055   0.000053
    22  O   -0.229091   0.000665  -0.031002  -0.000908  -0.000060   0.001177
    23  O   -0.036407   0.000053   0.015784  -0.000005   0.000001   0.000001
    24  O   -0.008610  -0.000031   0.000297  -0.000001   0.000000  -0.000003
    25  O   -0.051154   0.007033  -0.007057  -0.000002  -0.000089  -0.019944
    26  H    0.012320   0.003498  -0.000253   0.000000  -0.000017   0.005334
    27  H   -0.001701   0.003498  -0.001350   0.000001   0.000746   0.050785
    28  O   -0.000788   0.000000   0.001766   0.000000   0.000000   0.000000
    29  H    0.000145   0.000000  -0.003096   0.000000   0.000000   0.000000
    30  H   -0.000149   0.000000   0.000249   0.000000   0.000000   0.000000
    31  O    0.000572   0.000000  -0.000789   0.000000   0.000000   0.000000
    32  H   -0.000224   0.000000  -0.000153   0.000000   0.000000   0.000000
    33  H    0.001875   0.000000  -0.003021   0.000001   0.000000   0.000000
    34  O    0.096334   0.000016  -0.085897  -0.004549   0.000015  -0.000008
    35  H   -0.051917   0.000020   0.023750   0.000882  -0.000003   0.000001
    36  H    0.061389  -0.000016  -0.152246  -0.001238   0.000075   0.000006
    37  O   -0.002075   0.000151   0.000940   0.000001  -0.058962  -0.049352
    38  H    0.000709  -0.000044  -0.000640   0.000000   0.059765   0.008056
    39  H   -0.001376  -0.000021  -0.000257   0.000000   0.007447   0.040102
              13         14         15         16         17         18
     1  C   -0.077271  -0.030548  -0.008074   0.010140   0.212031  -0.061157
     2  C    0.025262   0.028011  -0.018789  -0.020403   0.072481   0.066079
     3  C    0.033114   0.289501   0.123548  -0.021930  -0.698924   1.005938
     4  C    0.001866  -0.117562  -0.006206   0.097192  -0.232834  -0.186925
     5  H    0.000125  -0.000283  -0.000211   0.000000  -0.000385   0.000187
     6  C    0.007770   0.017942   0.011788  -0.002065  -0.119636   0.076527
     7  C    0.359684  -0.338869  -0.133928  -0.017734   0.629522  -1.180849
     8  H   -0.000136  -0.001772  -0.000531   0.000096   0.013974  -0.023440
     9  C    0.055264   0.185615   0.398533  -0.010432   0.003201   0.269207
    10  H   -0.000438   0.002762  -0.001229  -0.000271   0.000500   0.000246
    11  O    0.000076  -0.000051  -0.000054  -0.000002   0.000931  -0.001099
    12  O   -0.000295   0.000053  -0.000029  -0.000003  -0.002687   0.004605
    13  H    0.540810   0.002153   0.006281  -0.000696  -0.003775  -0.027628
    14  O    0.002153   8.200087  -0.029038   0.271505  -0.008976  -0.034930
    15  H    0.006281  -0.029038   0.560407  -0.005857  -0.039942   0.028503
    16  H   -0.000696   0.271505  -0.005857   0.293488   0.001708   0.057617
    17  C   -0.003775  -0.008976  -0.039942   0.001708   6.272583  -0.277212
    18  C   -0.027628  -0.034930   0.028503   0.057617  -0.277212   8.831648
    19  H    0.000084  -0.000136   0.000218  -0.000009   0.403034  -0.110274
    20  H   -0.000277   0.000070   0.000003  -0.000019   0.379593   0.020074
    21  C    0.018393   0.068772   0.023981  -0.086578  -0.228360  -2.569268
    22  O   -0.055671   0.082396   0.002375  -0.009774  -0.070712   0.002481
    23  O    0.000305   0.006240   0.001175   0.014038   0.010161  -0.066158
    24  O    0.000030  -0.002141  -0.000796   0.003041  -0.056427  -0.014932
    25  O    0.000055  -0.000003   0.000045   0.000007   0.010872  -0.004980
    26  H    0.000013   0.000000   0.000000   0.000000   0.005790  -0.006572
    27  H    0.000010  -0.000003   0.000028   0.000000  -0.001452   0.000026
    28  O   -0.000002   0.001065  -0.000014  -0.002483   0.000159  -0.024142
    29  H    0.000004   0.000158  -0.000017  -0.000899   0.002638  -0.004778
    30  H    0.000000  -0.000024   0.000001   0.000033   0.000537   0.007697
    31  O    0.000003   0.000434   0.000008  -0.001359   0.002643  -0.058194
    32  H   -0.000001  -0.000091   0.000014   0.000259   0.000810   0.036949
    33  H   -0.000001   0.000304   0.000033  -0.000805  -0.002893  -0.018859
    34  O   -0.008379  -0.031284  -0.000496  -0.003963   0.001001  -0.000765
    35  H    0.001370   0.069202  -0.000158   0.000378  -0.001375   0.002556
    36  H   -0.000630   0.003849   0.000366   0.000115   0.000109  -0.001183
    37  O    0.000002   0.000000   0.000000   0.000000  -0.000128   0.000116
    38  H    0.000000   0.000000   0.000000   0.000000   0.000018  -0.000013
    39  H    0.000000   0.000000   0.000000   0.000000  -0.000049   0.000063
              19         20         21         22         23         24
     1  C   -0.000041   0.042713  -0.232707  -0.024917   0.005005  -0.003780
     2  C    0.000163  -0.001212  -0.008761  -0.032355   0.000898   0.000248
     3  C   -0.004948  -0.042521  -0.004064   0.223843  -0.017778   0.001755
     4  C    0.000719   0.005195  -0.167737   0.022742   0.091232  -0.008082
     5  H    0.000000   0.000001   0.000247   0.000174  -0.000003   0.000000
     6  C    0.000622  -0.000546   0.076393   0.048654   0.001241  -0.000255
     7  C   -0.004234   0.011946   0.037248  -0.229091  -0.036407  -0.008610
     8  H    0.000250  -0.002134   0.002165   0.000665   0.000053  -0.000031
     9  C    0.007585  -0.013441   0.048648  -0.031002   0.015784   0.000297
    10  H    0.000000   0.000001   0.000713  -0.000908  -0.000005  -0.000001
    11  O    0.000000   0.000031   0.000055  -0.000060   0.000001   0.000000
    12  O   -0.000014  -0.000473   0.000053   0.001177   0.000001  -0.000003
    13  H    0.000084  -0.000277   0.018393  -0.055671   0.000305   0.000030
    14  O   -0.000136   0.000070   0.068772   0.082396   0.006240  -0.002141
    15  H    0.000218   0.000003   0.023981   0.002375   0.001175  -0.000796
    16  H   -0.000009  -0.000019  -0.086578  -0.009774   0.014038   0.003041
    17  C    0.403034   0.379593  -0.228360  -0.070712   0.010161  -0.056427
    18  C   -0.110274   0.020074  -2.569268   0.002481  -0.066158  -0.014932
    19  H    0.560017  -0.035796   0.075766   0.015585  -0.001988  -0.006101
    20  H   -0.035796   0.489728  -0.020034  -0.011506  -0.000414  -0.000008
    21  C    0.075766  -0.020034   7.625917   0.076959   0.321013   0.411583
    22  O    0.015585  -0.011506   0.076959   8.434786  -0.002337   0.011320
    23  O   -0.001988  -0.000414   0.321013  -0.002337   8.493508  -0.052756
    24  O   -0.006101  -0.000008   0.411583   0.011320  -0.052756   8.307012
    25  O    0.000789   0.003208   0.005869  -0.001124  -0.000014   0.000065
    26  H   -0.000035   0.001394   0.000397   0.000071  -0.000001  -0.000002
    27  H    0.000006  -0.000469   0.000448  -0.000117   0.000000  -0.000004
    28  O    0.000013   0.000000   0.038993  -0.000303  -0.026910  -0.002510
    29  H    0.000014   0.000001   0.010536  -0.001145   0.040624   0.000242
    30  H   -0.000001   0.000000  -0.010453  -0.000016   0.000888   0.002565
    31  O    0.000267  -0.000017   0.072632   0.001040  -0.046519  -0.060815
    32  H   -0.000343   0.000016  -0.045103  -0.000357   0.011647   0.083164
    33  H   -0.000015   0.000003   0.018978   0.000126   0.024579  -0.001527
    34  O   -0.000001   0.000001   0.001585   0.001162   0.000948  -0.000016
    35  H    0.000001   0.000001  -0.001922  -0.000235  -0.001455   0.000012
    36  H    0.000000   0.000000   0.000075  -0.000134  -0.000048   0.000001
    37  O    0.000000  -0.000002   0.000002   0.000002   0.000000   0.000000
    38  H    0.000000   0.000000   0.000002   0.000001   0.000000   0.000000
    39  H    0.000000   0.000001  -0.000001   0.000000   0.000000   0.000000
              25         26         27         28         29         30
     1  C    0.100097  -0.026344   0.037071   0.000031  -0.000048   0.000019
     2  C    0.007511  -0.009292   0.009982  -0.000045   0.000085  -0.000001
     3  C   -0.076740   0.020547  -0.047696  -0.001109   0.000334   0.000001
     4  C    0.000424   0.000705  -0.001520   0.001613  -0.002183   0.000027
     5  H   -0.000002   0.000002   0.000001   0.000000   0.000000   0.000000
     6  C    0.016213   0.000643   0.001253   0.000010  -0.000010   0.000000
     7  C   -0.051154   0.012320  -0.001701  -0.000788   0.000145  -0.000149
     8  H    0.007033   0.003498   0.003498   0.000000   0.000000   0.000000
     9  C   -0.007057  -0.000253  -0.001350   0.001766  -0.003096   0.000249
    10  H   -0.000002   0.000000   0.000001   0.000000   0.000000   0.000000
    11  O   -0.000089  -0.000017   0.000746   0.000000   0.000000   0.000000
    12  O   -0.019944   0.005334   0.050785   0.000000   0.000000   0.000000
    13  H    0.000055   0.000013   0.000010  -0.000002   0.000004   0.000000
    14  O   -0.000003   0.000000  -0.000003   0.001065   0.000158  -0.000024
    15  H    0.000045   0.000000   0.000028  -0.000014  -0.000017   0.000001
    16  H    0.000007   0.000000   0.000000  -0.002483  -0.000899   0.000033
    17  C    0.010872   0.005790  -0.001452   0.000159   0.002638   0.000537
    18  C   -0.004980  -0.006572   0.000026  -0.024142  -0.004778   0.007697
    19  H    0.000789  -0.000035   0.000006   0.000013   0.000014  -0.000001
    20  H    0.003208   0.001394  -0.000469   0.000000   0.000001   0.000000
    21  C    0.005869   0.000397   0.000448   0.038993   0.010536  -0.010453
    22  O   -0.001124   0.000071  -0.000117  -0.000303  -0.001145  -0.000016
    23  O   -0.000014  -0.000001   0.000000  -0.026910   0.040624   0.000888
    24  O    0.000065  -0.000002  -0.000004  -0.002510   0.000242   0.002565
    25  O    7.962868   0.268548   0.320183   0.000000   0.000000   0.000000
    26  H    0.268548   0.561171  -0.012920   0.000000   0.000000   0.000000
    27  H    0.320183  -0.012920   0.260034   0.000000   0.000000   0.000000
    28  O    0.000000   0.000000   0.000000   8.109487   0.267153   0.280277
    29  H    0.000000   0.000000   0.000000   0.267153   0.379940  -0.005582
    30  H    0.000000   0.000000   0.000000   0.280277  -0.005582   0.406114
    31  O    0.000000   0.000000   0.000000  -0.000110  -0.006803   0.042346
    32  H    0.000000   0.000000   0.000000  -0.004821   0.000815  -0.007093
    33  H    0.000000   0.000000   0.000000  -0.001949   0.000054  -0.006553
    34  O   -0.000001   0.000000   0.000000   0.000001   0.000005   0.000000
    35  H    0.000001   0.000000   0.000000  -0.000002  -0.000001   0.000000
    36  H    0.000001   0.000000   0.000000   0.000000   0.000000   0.000000
    37  O   -0.000288   0.000059  -0.000431   0.000000   0.000000   0.000000
    38  H   -0.000001  -0.000011   0.000080   0.000000   0.000000   0.000000
    39  H    0.000192  -0.000021  -0.000534   0.000000   0.000000   0.000000
              31         32         33         34         35         36
     1  C   -0.000119  -0.000016  -0.000068   0.043587   0.005791   0.029881
     2  C   -0.000050   0.000067   0.000111  -0.056227   0.021273   0.003108
     3  C   -0.000438   0.000491  -0.000147  -0.065974   0.007253  -0.047454
     4  C   -0.001667  -0.000109  -0.000064   0.079662  -0.013269   0.113436
     5  H    0.000000   0.000000   0.000000   0.000117  -0.000027  -0.000024
     6  C    0.000022  -0.000008   0.000002   0.010815   0.000684   0.006239
     7  C    0.000572  -0.000224   0.001875   0.096334  -0.051917   0.061389
     8  H    0.000000   0.000000   0.000000   0.000016   0.000020  -0.000016
     9  C   -0.000789  -0.000153  -0.003021  -0.085897   0.023750  -0.152246
    10  H    0.000000   0.000000   0.000001  -0.004549   0.000882  -0.001238
    11  O    0.000000   0.000000   0.000000   0.000015  -0.000003   0.000075
    12  O    0.000000   0.000000   0.000000  -0.000008   0.000001   0.000006
    13  H    0.000003  -0.000001  -0.000001  -0.008379   0.001370  -0.000630
    14  O    0.000434  -0.000091   0.000304  -0.031284   0.069202   0.003849
    15  H    0.000008   0.000014   0.000033  -0.000496  -0.000158   0.000366
    16  H   -0.001359   0.000259  -0.000805  -0.003963   0.000378   0.000115
    17  C    0.002643   0.000810  -0.002893   0.001001  -0.001375   0.000109
    18  C   -0.058194   0.036949  -0.018859  -0.000765   0.002556  -0.001183
    19  H    0.000267  -0.000343  -0.000015  -0.000001   0.000001   0.000000
    20  H   -0.000017   0.000016   0.000003   0.000001   0.000001   0.000000
    21  C    0.072632  -0.045103   0.018978   0.001585  -0.001922   0.000075
    22  O    0.001040  -0.000357   0.000126   0.001162  -0.000235  -0.000134
    23  O   -0.046519   0.011647   0.024579   0.000948  -0.001455  -0.000048
    24  O   -0.060815   0.083164  -0.001527  -0.000016   0.000012   0.000001
    25  O    0.000000   0.000000   0.000000  -0.000001   0.000001   0.000001
    26  H    0.000000   0.000000   0.000000   0.000000   0.000000   0.000000
    27  H    0.000000   0.000000   0.000000   0.000000   0.000000   0.000000
    28  O   -0.000110  -0.004821  -0.001949   0.000001  -0.000002   0.000000
    29  H   -0.006803   0.000815   0.000054   0.000005  -0.000001   0.000000
    30  H    0.042346  -0.007093  -0.006553   0.000000   0.000000   0.000000
    31  O    8.062899   0.294470   0.277535   0.000004  -0.000006   0.000000
    32  H    0.294470   0.342405  -0.017388   0.000000   0.000000   0.000000
    33  H    0.277535  -0.017388   0.464343  -0.000002   0.000003   0.000000
    34  O    0.000004   0.000000  -0.000002   7.985986   0.294227   0.272425
    35  H   -0.000006   0.000000   0.000003   0.294227   0.358533  -0.003344
    36  H    0.000000   0.000000   0.000000   0.272425  -0.003344   0.457827
    37  O    0.000000   0.000000   0.000000   0.000000   0.000000   0.000000
    38  H    0.000000   0.000000   0.000000   0.000000   0.000000   0.000000
    39  H    0.000000   0.000000   0.000000   0.000000   0.000000   0.000000
              37         38         39
     1  C   -0.016653  -0.012370  -0.025764
     2  C    0.005057  -0.007881   0.000617
     3  C    0.011213   0.003173  -0.002738
     4  C   -0.001192  -0.001367   0.001851
     5  H    0.000158  -0.000055  -0.000007
     6  C    0.037193   0.010980   0.021199
     7  C   -0.002075   0.000709  -0.001376
     8  H    0.000151  -0.000044  -0.000021
     9  C    0.000940  -0.000640  -0.000257
    10  H    0.000001   0.000000   0.000000
    11  O   -0.058962   0.059765   0.007447
    12  O   -0.049352   0.008056   0.040102
    13  H    0.000002   0.000000   0.000000
    14  O    0.000000   0.000000   0.000000
    15  H    0.000000   0.000000   0.000000
    16  H    0.000000   0.000000   0.000000
    17  C   -0.000128   0.000018  -0.000049
    18  C    0.000116  -0.000013   0.000063
    19  H    0.000000   0.000000   0.000000
    20  H   -0.000002   0.000000   0.000001
    21  C    0.000002   0.000002  -0.000001
    22  O    0.000002   0.000001   0.000000
    23  O    0.000000   0.000000   0.000000
    24  O    0.000000   0.000000   0.000000
    25  O   -0.000288  -0.000001   0.000192
    26  H    0.000059  -0.000011  -0.000021
    27  H   -0.000431   0.000080  -0.000534
    28  O    0.000000   0.000000   0.000000
    29  H    0.000000   0.000000   0.000000
    30  H    0.000000   0.000000   0.000000
    31  O    0.000000   0.000000   0.000000
    32  H    0.000000   0.000000   0.000000
    33  H    0.000000   0.000000   0.000000
    34  O    0.000000   0.000000   0.000000
    35  H    0.000000   0.000000   0.000000
    36  H    0.000000   0.000000   0.000000
    37  O    8.086503   0.280312   0.287859
    38  H    0.280312   0.396445  -0.017784
    39  H    0.287859  -0.017784   0.401924
 Mulliken charges:
               1
     1  C    0.119901
     2  C   -0.385910
     3  C   -0.369041
     4  C   -0.436218
     5  H    0.114515
     6  C    0.581203
     7  C    0.517559
     8  H    0.088588
     9  C    0.252909
    10  H    0.094402
    11  O   -0.651242
    12  O   -0.777458
    13  H    0.122527
    14  O   -0.634406
    15  H    0.088065
    16  H    0.435665
    17  C   -0.278527
    18  C    0.262837
    19  H    0.098804
    20  H    0.174891
    21  C    0.437564
    22  O   -0.453794
    23  O   -0.786551
    24  O   -0.602535
    25  O   -0.542580
    26  H    0.174978
    27  H    0.384047
    28  O   -0.635379
    29  H    0.321813
    30  H    0.289117
    31  O   -0.577991
    32  H    0.304601
    33  H    0.265345
    34  O   -0.530331
    35  H    0.287776
    36  H    0.257415
    37  O   -0.580482
    38  H    0.280623
    39  H    0.287297
 Sum of Mulliken charges =  -2.00000
 Mulliken charges with hydrogens summed into heavy atoms:
               1
     1  C    0.119901
     2  C   -0.271394
     3  C   -0.280453
     4  C   -0.341816
     6  C    0.581203
     7  C    0.640086
     9  C    0.340974
    11  O   -0.651242
    12  O   -0.777458
    14  O   -0.198741
    17  C   -0.004832
    18  C    0.262837
    21  C    0.437564
    22  O   -0.453794
    23  O   -0.786551
    24  O   -0.602535
    25  O    0.016445
    28  O   -0.024448
    31  O   -0.008044
    34  O    0.014860
    37  O   -0.012562
 Electronic spatial extent (au):  <R**2>=           9670.1628
 Charge=             -2.0000 electrons
 Dipole moment (field-independent basis, Debye):
    X=              0.7549    Y=              2.0049    Z=             -0.1226  Tot=              2.1458
 Quadrupole moment (field-independent basis, Debye-Ang):
   XX=           -368.2000   YY=           -181.1568   ZZ=           -146.2556
   XY=             -8.4277   XZ=             -8.4214   YZ=            -11.7749
 Traceless Quadrupole moment (field-independent basis, Debye-Ang):
   XX=           -136.3292   YY=             50.7140   ZZ=             85.6152
   XY=             -8.4277   XZ=             -8.4214   YZ=            -11.7749
 Octapole moment (field-independent basis, Debye-Ang**2):
  XXX=            202.3706  YYY=            -31.0391  ZZZ=             12.7374  XYY=             14.1386
  XXY=            131.9089  XXZ=             57.8003  XZZ=            -46.3023  YZZ=            -21.6635
  YYZ=            -35.7125  XYZ=            -19.8131
 Hexadecapole moment (field-independent basis, Debye-Ang**3):
 XXXX=         -18213.5413 YYYY=          -3157.1542 ZZZZ=           -727.0628 XXXY=           -358.5241
 XXXZ=           -322.4945 YYYX=           -117.3659 YYYZ=           -152.2197 ZZZX=             -5.2009
 ZZZY=            -58.3729 XXYY=          -2228.1438 XXZZ=          -2001.9416 YYZZ=           -581.7411
 XXYZ=           -124.0840 YYXZ=             -9.0389 ZZXY=             59.9396
 N-N= 1.809612443090D+03 E-N=-6.525288156361D+03  KE= 1.215537391222D+03
 No NMR shielding tensors so no spin-rotation constants.
 Leave Link  601 at Wed Feb  6 11:14:27 2019, MaxMem=    33554432 cpu:        13.2
 (Enter /global/apps/Gaussian/09.d01/l9999.exe)
 1\1\GINC-C46-2\SP\RB3LYP\6-311+G(2d,2p)\C10H18O11(2-)\GVI022\06-Feb-20
 19\0\\#p rb3lyp/6-311+g(2d,2p) geom=connectivity empiricaldispersion=g
 d3\\Title Card Required\\-2,1\C,0,-2.357817,0.547679,-0.190259\C,0,-1.
 99598,1.787899,-0.899894\C,0,-1.417375,-0.071072,0.547213\C,0,-0.71297
 1,2.158511,-1.048902\H,0,-2.818052,2.35495,-1.324678\C,0,-3.803904,0.0
 58313,-0.262871\C,0,-0.045964,0.534874,0.721363\H,0,-1.651345,-0.97270
 8,1.097329\C,0,0.413753,1.295779,-0.528341\H,0,-0.422208,3.037979,-1.6
 19075\O,0,-4.629197,0.854345,-0.780964\O,0,-4.064285,-1.09064,0.218137
 \H,0,-0.101064,1.281896,1.528763\O,0,1.557826,2.089556,-0.254119\H,0,0
 .660866,0.549938,-1.307889\H,0,2.283451,1.429138,-0.056999\C,0,0.80239
 6,-2.428389,-0.037401\C,0,1.472617,-1.331475,0.331141\H,0,1.317983,-3.
 137571,-0.67437\H,0,-0.220171,-2.635529,0.265463\C,0,2.900682,-1.06216
 ,-0.150581\O,0,0.952439,-0.383676,1.19682\O,0,3.330353,0.138676,-0.054
 917\O,0,3.537807,-2.032671,-0.625839\O,0,-2.546669,-3.240379,0.853861\
 H,0,-2.527545,-3.040865,1.797532\H,0,-3.067803,-2.473125,0.499375\O,0,
 6.031162,0.138134,1.092359\H,0,5.067007,0.239902,1.003384\H,0,6.221116
 ,-0.281894,0.233909\O,0,5.688628,-0.698716,-1.644422\H,0,5.029476,-1.3
 70266,-1.333363\H,0,5.152907,0.089002,-1.457834\O,0,0.223267,3.86188,1
 .485889\H,0,0.890842,3.341252,0.993013\H,0,-0.583114,3.614773,1.012204
 \O,0,-6.869105,-0.837601,-0.347842\H,0,-6.377463,-0.045338,-0.642036\H
 ,0,-6.085307,-1.312562,-0.015249\\Version=EM64L-G09RevD.01\State=1-A\H
 F=-1219.9790481\RMSD=1.975e-09\Dipole=0.2969886,0.7887766,-0.0482395\Q
 uadrupole=-101.3573952,37.7045888,63.6528064,-6.2657991,-6.2611076,-8.
 7543246\PG=C01 [X(C10H18O11)]\\@


 SEE YOU NOW,
 YOUR BAIT OF FALSEHOOD TAKES THIS CARP OF TRUTH.
 AND THUS DO WE OF WISDOM AND OF REACH...
 BY INDIRECTIONS FIND DIRECTIONS OUT.    -- HAMLET, II, 1
 Job cpu time:       0 days  0 hours  0 minutes 27.1 seconds.
 File lengths (MBytes):  RWF=    275 Int=      0 D2E=      0 Chk=     19 Scr=      1
 Normal termination of Gaussian 09 at Wed Feb  6 11:14:28 2019.
