 Entering Gaussian System, Link 0=g09
 Initial command:
 /global/apps/Gaussian/09.d01/l1.exe "/global/work/gvi022/1443314/Gau-48746.inp" -scrdir="/global/work/gvi022/1443314/"
 Entering Link 1 = /global/apps/Gaussian/09.d01/l1.exe PID=     48747.
  
 Copyright (c) 1988,1990,1992,1993,1995,1998,2003,2009,2013,
            Gaussian, Inc.  All Rights Reserved.
  
 This is part of the Gaussian(R) 09 program.  It is based on
 the Gaussian(R) 03 system (copyright 2003, Gaussian, Inc.),
 the Gaussian(R) 98 system (copyright 1998, Gaussian, Inc.),
 the Gaussian(R) 94 system (copyright 1995, Gaussian, Inc.),
 the Gaussian 92(TM) system (copyright 1992, Gaussian, Inc.),
 the Gaussian 90(TM) system (copyright 1990, Gaussian, Inc.),
 the Gaussian 88(TM) system (copyright 1988, Gaussian, Inc.),
 the Gaussian 86(TM) system (copyright 1986, Carnegie Mellon
 University), and the Gaussian 82(TM) system (copyright 1983,
 Carnegie Mellon University). Gaussian is a federally registered
 trademark of Gaussian, Inc.
  
 This software contains proprietary and confidential information,
 including trade secrets, belonging to Gaussian, Inc.
  
 This software is provided under written license and may be
 used, copied, transmitted, or stored only in accord with that
 written license.
  
 The following legend is applicable only to US Government
 contracts under FAR:
  
                    RESTRICTED RIGHTS LEGEND
  
 Use, reproduction and disclosure by the US Government is
 subject to restrictions as set forth in subparagraphs (a)
 and (c) of the Commercial Computer Software - Restricted
 Rights clause in FAR 52.227-19.
  
 Gaussian, Inc.
 340 Quinnipiac St., Bldg. 40, Wallingford CT 06492
  
  
 ---------------------------------------------------------------
 Warning -- This program may not be used in any manner that
 competes with the business of Gaussian, Inc. or will provide
 assistance to any competitor of Gaussian, Inc.  The licensee
 of this program is prohibited from giving any competitor of
 Gaussian, Inc. access to this program.  By using this program,
 the user acknowledges that Gaussian, Inc. is engaged in the
 business of creating and licensing software in the field of
 computational chemistry and represents and warrants to the
 licensee that it is not a competitor of Gaussian, Inc. and that
 it will not use this program in any manner prohibited above.
 ---------------------------------------------------------------
  

 Cite this work as:
 Gaussian 09, Revision D.01,
 M. J. Frisch, G. W. Trucks, H. B. Schlegel, G. E. Scuseria, 
 M. A. Robb, J. R. Cheeseman, G. Scalmani, V. Barone, B. Mennucci, 
 G. A. Petersson, H. Nakatsuji, M. Caricato, X. Li, H. P. Hratchian, 
 A. F. Izmaylov, J. Bloino, G. Zheng, J. L. Sonnenberg, M. Hada, 
 M. Ehara, K. Toyota, R. Fukuda, J. Hasegawa, M. Ishida, T. Nakajima, 
 Y. Honda, O. Kitao, H. Nakai, T. Vreven, J. A. Montgomery, Jr., 
 J. E. Peralta, F. Ogliaro, M. Bearpark, J. J. Heyd, E. Brothers, 
 K. N. Kudin, V. N. Staroverov, T. Keith, R. Kobayashi, J. Normand, 
 K. Raghavachari, A. Rendell, J. C. Burant, S. S. Iyengar, J. Tomasi, 
 M. Cossi, N. Rega, J. M. Millam, M. Klene, J. E. Knox, J. B. Cross, 
 V. Bakken, C. Adamo, J. Jaramillo, R. Gomperts, R. E. Stratmann, 
 O. Yazyev, A. J. Austin, R. Cammi, C. Pomelli, J. W. Ochterski, 
 R. L. Martin, K. Morokuma, V. G. Zakrzewski, G. A. Voth, 
 P. Salvador, J. J. Dannenberg, S. Dapprich, A. D. Daniels, 
 O. Farkas, J. B. Foresman, J. V. Ortiz, J. Cioslowski, 
 and D. J. Fox, Gaussian, Inc., Wallingford CT, 2013.
 
 ******************************************
 Gaussian 09:  EM64L-G09RevD.01 24-Apr-2013
                 6-Feb-2019 
 ******************************************
 %LindaWorkers=cib46-2,cib46-6,cib46-8,cib47-4
 %NProcShared=20
 Will use up to   20 processors via shared memory.
 %chk=ChorA_RS_solv.chk
 SetLPE:  input flags=""
 SetLPE:    new flags=" -nodelist 'cib46-2.ibnet cib46-6.ibnet cib46-8.ibnet cib47-4.ibnet'"
 Will use up to    4 processors via Linda.
 ----------------------------------------------------------------------
 #p rb3lyp/6-31g(d,p) scrf=(iefpcm,solvent=water) geom=connectivity emp
 iricaldispersion=gd3
 ----------------------------------------------------------------------
 1/38=1,57=2/1;
 2/12=2,17=6,18=5,40=1/2;
 3/5=1,6=6,7=101,11=2,16=1,25=1,30=1,70=2201,72=1,74=-5,116=1,124=31/1,2,3;
 4//1;
 5/5=2,38=5,53=1/2;
 6/7=2,8=2,9=2,10=2,28=1/1;
 99/5=1,9=1/99;
 Leave Link    1 at Wed Feb  6 11:11:22 2019, MaxMem=           0 cpu:        12.0
 (Enter /global/apps/Gaussian/09.d01/l101.exe)
 -------------------
 Title Card Required
 -------------------
 Symbolic Z-matrix:
 Charge = -2 Multiplicity = 1
 C                    -2.35782   0.54768  -0.19026 
 C                    -1.99598   1.7879   -0.89989 
 C                    -1.41738  -0.07107   0.54721 
 C                    -0.71297   2.15851  -1.0489 
 H                    -2.81805   2.35495  -1.32468 
 C                    -3.8039    0.05831  -0.26287 
 C                    -0.04596   0.53487   0.72136 
 H                    -1.65135  -0.97271   1.09733 
 C                     0.41375   1.29578  -0.52834 
 H                    -0.42221   3.03798  -1.61908 
 O                    -4.6292    0.85435  -0.78096 
 O                    -4.06428  -1.09064   0.21814 
 H                    -0.10106   1.2819    1.52876 
 O                     1.55783   2.08956  -0.25412 
 H                     0.66087   0.54994  -1.30789 
 H                     2.28345   1.42914  -0.057 
 C                     0.8024   -2.42839  -0.0374 
 C                     1.47262  -1.33148   0.33114 
 H                     1.31798  -3.13757  -0.67437 
 H                    -0.22017  -2.63553   0.26546 
 C                     2.90068  -1.06216  -0.15058 
 O                     0.95244  -0.38368   1.19682 
 O                     3.33035   0.13868  -0.05492 
 O                     3.53781  -2.03267  -0.62584 
 O                    -2.54667  -3.24038   0.85386 
 H                    -2.52755  -3.04087   1.79753 
 H                    -3.0678   -2.47313   0.49938 
 O                     6.03116   0.13813   1.09236 
 H                     5.06701   0.2399    1.00338 
 H                     6.22112  -0.28189   0.23391 
 O                     5.68863  -0.69872  -1.64442 
 H                     5.02948  -1.37027  -1.33336 
 H                     5.15291   0.089    -1.45783 
 O                     0.22327   3.86188   1.48589 
 H                     0.89084   3.34125   0.99301 
 H                    -0.58311   3.61477   1.0122 
 O                    -6.86911  -0.8376   -0.34784 
 H                    -6.37746  -0.04534  -0.64204 
 H                    -6.08531  -1.31256  -0.01525 
 
 NAtoms=     39 NQM=       39 NQMF=       0 NMMI=      0 NMMIF=      0
                NMic=       0 NMicF=      0.
                    Isotopes and Nuclear Properties:
 (Nuclear quadrupole moments (NQMom) in fm**2, nuclear magnetic moments (NMagM)
  in nuclear magnetons)

  Atom         1           2           3           4           5           6           7           8           9          10
 IAtWgt=          12          12          12          12           1          12          12           1          12           1
 AtmWgt=  12.0000000  12.0000000  12.0000000  12.0000000   1.0078250  12.0000000  12.0000000   1.0078250  12.0000000   1.0078250
 NucSpn=           0           0           0           0           1           0           0           1           0           1
 AtZEff=   0.0000000   0.0000000   0.0000000   0.0000000   0.0000000   0.0000000   0.0000000   0.0000000   0.0000000   0.0000000
 NQMom=    0.0000000   0.0000000   0.0000000   0.0000000   0.0000000   0.0000000   0.0000000   0.0000000   0.0000000   0.0000000
 NMagM=    0.0000000   0.0000000   0.0000000   0.0000000   2.7928460   0.0000000   0.0000000   2.7928460   0.0000000   2.7928460
 AtZNuc=   6.0000000   6.0000000   6.0000000   6.0000000   1.0000000   6.0000000   6.0000000   1.0000000   6.0000000   1.0000000

  Atom        11          12          13          14          15          16          17          18          19          20
 IAtWgt=          16          16           1          16           1           1          12          12           1           1
 AtmWgt=  15.9949146  15.9949146   1.0078250  15.9949146   1.0078250   1.0078250  12.0000000  12.0000000   1.0078250   1.0078250
 NucSpn=           0           0           1           0           1           1           0           0           1           1
 AtZEff=   0.0000000   0.0000000   0.0000000   0.0000000   0.0000000   0.0000000   0.0000000   0.0000000   0.0000000   0.0000000
 NQMom=    0.0000000   0.0000000   0.0000000   0.0000000   0.0000000   0.0000000   0.0000000   0.0000000   0.0000000   0.0000000
 NMagM=    0.0000000   0.0000000   2.7928460   0.0000000   2.7928460   2.7928460   0.0000000   0.0000000   2.7928460   2.7928460
 AtZNuc=   8.0000000   8.0000000   1.0000000   8.0000000   1.0000000   1.0000000   6.0000000   6.0000000   1.0000000   1.0000000

  Atom        21          22          23          24          25          26          27          28          29          30
 IAtWgt=          12          16          16          16          16           1           1          16           1           1
 AtmWgt=  12.0000000  15.9949146  15.9949146  15.9949146  15.9949146   1.0078250   1.0078250  15.9949146   1.0078250   1.0078250
 NucSpn=           0           0           0           0           0           1           1           0           1           1
 AtZEff=   0.0000000   0.0000000   0.0000000   0.0000000   0.0000000   0.0000000   0.0000000   0.0000000   0.0000000   0.0000000
 NQMom=    0.0000000   0.0000000   0.0000000   0.0000000   0.0000000   0.0000000   0.0000000   0.0000000   0.0000000   0.0000000
 NMagM=    0.0000000   0.0000000   0.0000000   0.0000000   0.0000000   2.7928460   2.7928460   0.0000000   2.7928460   2.7928460
 AtZNuc=   6.0000000   8.0000000   8.0000000   8.0000000   8.0000000   1.0000000   1.0000000   8.0000000   1.0000000   1.0000000

  Atom        31          32          33          34          35          36          37          38          39
 IAtWgt=          16           1           1          16           1           1          16           1           1
 AtmWgt=  15.9949146   1.0078250   1.0078250  15.9949146   1.0078250   1.0078250  15.9949146   1.0078250   1.0078250
 NucSpn=           0           1           1           0           1           1           0           1           1
 AtZEff=   0.0000000   0.0000000   0.0000000   0.0000000   0.0000000   0.0000000   0.0000000   0.0000000   0.0000000
 NQMom=    0.0000000   0.0000000   0.0000000   0.0000000   0.0000000   0.0000000   0.0000000   0.0000000   0.0000000
 NMagM=    0.0000000   2.7928460   2.7928460   0.0000000   2.7928460   2.7928460   0.0000000   2.7928460   2.7928460
 AtZNuc=   8.0000000   1.0000000   1.0000000   8.0000000   1.0000000   1.0000000   8.0000000   1.0000000   1.0000000
 Leave Link  101 at Wed Feb  6 11:11:23 2019, MaxMem=    33554432 cpu:         3.7
 (Enter /global/apps/Gaussian/09.d01/l202.exe)
                          Input orientation:                          
 ---------------------------------------------------------------------
 Center     Atomic      Atomic             Coordinates (Angstroms)
 Number     Number       Type             X           Y           Z
 ---------------------------------------------------------------------
      1          6           0       -2.357817    0.547679   -0.190259
      2          6           0       -1.995980    1.787899   -0.899894
      3          6           0       -1.417375   -0.071072    0.547213
      4          6           0       -0.712971    2.158511   -1.048902
      5          1           0       -2.818052    2.354950   -1.324678
      6          6           0       -3.803904    0.058313   -0.262871
      7          6           0       -0.045964    0.534874    0.721363
      8          1           0       -1.651345   -0.972708    1.097329
      9          6           0        0.413753    1.295779   -0.528341
     10          1           0       -0.422208    3.037979   -1.619075
     11          8           0       -4.629197    0.854345   -0.780964
     12          8           0       -4.064285   -1.090640    0.218137
     13          1           0       -0.101064    1.281896    1.528763
     14          8           0        1.557826    2.089556   -0.254119
     15          1           0        0.660866    0.549938   -1.307889
     16          1           0        2.283451    1.429138   -0.056999
     17          6           0        0.802396   -2.428389   -0.037401
     18          6           0        1.472617   -1.331475    0.331141
     19          1           0        1.317983   -3.137571   -0.674370
     20          1           0       -0.220171   -2.635529    0.265463
     21          6           0        2.900682   -1.062160   -0.150581
     22          8           0        0.952439   -0.383676    1.196820
     23          8           0        3.330353    0.138676   -0.054917
     24          8           0        3.537807   -2.032671   -0.625839
     25          8           0       -2.546669   -3.240379    0.853861
     26          1           0       -2.527545   -3.040865    1.797532
     27          1           0       -3.067803   -2.473125    0.499375
     28          8           0        6.031162    0.138134    1.092359
     29          1           0        5.067007    0.239902    1.003384
     30          1           0        6.221116   -0.281894    0.233909
     31          8           0        5.688628   -0.698716   -1.644422
     32          1           0        5.029476   -1.370266   -1.333363
     33          1           0        5.152907    0.089002   -1.457834
     34          8           0        0.223267    3.861880    1.485889
     35          1           0        0.890842    3.341252    0.993013
     36          1           0       -0.583114    3.614773    1.012204
     37          8           0       -6.869105   -0.837601   -0.347842
     38          1           0       -6.377463   -0.045338   -0.642036
     39          1           0       -6.085307   -1.312562   -0.015249
 ---------------------------------------------------------------------
                    Distance matrix (angstroms):
                    1          2          3          4          5
     1  C    0.000000
     2  C    1.473992   0.000000
     3  C    1.345789   2.425835   0.000000
     4  C    2.457146   1.343752   2.831044   0.000000
     5  H    2.182877   1.085261   3.369192   2.132137   0.000000
     6  C    1.528371   2.581832   2.523588   3.818710   2.715489
     7  C    2.485132   2.828623   1.509393   2.492977   3.896592
     8  H    2.113897   3.424708   1.081812   3.910420   4.277924
     9  C    2.890597   2.487378   2.525496   1.511555   3.492930
    10  H    3.462613   2.134638   3.917826   1.087706   2.508638
    11  O    2.366885   2.796337   3.596700   4.136359   2.414060
    12  O    2.400606   3.716701   2.855511   4.836701   3.975609
    13  H    2.930366   3.121718   2.127590   2.790563   4.083576
    14  O    4.208767   3.624577   3.763279   2.406856   4.512742
    15  H    3.218936   2.959364   2.854145   2.131199   3.919339
    16  H    4.726108   4.376381   4.038789   3.239506   5.337553
    17  C    4.343650   5.133409   3.290304   4.935496   6.135557
    18  C    4.298291   4.824635   3.160278   4.342962   5.894176
    19  H    5.227517   5.940830   4.286941   5.684499   6.906336
    20  H    3.861350   4.906961   2.844138   4.995320   5.846573
    21  C    5.499542   5.715033   4.484951   4.923230   6.764545
    22  O    3.707992   4.219612   2.477040   3.778832   5.298550
    23  O    5.704461   5.639481   4.790352   4.627765   6.657856
    24  O    6.450296   6.730131   5.456899   5.984488   7.754775
    25  O    3.933858   5.353737   3.378438   6.010904   6.010606
    26  H    4.105821   5.556584   3.408144   6.199063   6.240786
    27  H    3.178826   4.611191   2.914800   5.421665   5.167190
    28  O    8.496341   8.433612   7.471389   7.358685   9.437422
    29  H    7.526455   7.476934   6.507842   6.426592   8.489255
    30  H    8.629380   8.549282   7.647820   7.462087   9.544040
    31  O    8.271237   8.111151   7.462739   7.035543   9.043822
    32  H    7.717337   7.714851   6.840055   6.746027   8.686829
    33  H    7.630734   7.369134   6.871277   6.233668   8.287849
    34  O    4.522764   3.862436   4.363591   3.194241   4.406784
    35  H    4.444994   3.785465   4.143737   2.853158   4.483345
    36  H    3.741999   2.998296   3.807579   2.526998   3.470320
    37  O    4.721817   5.562855   5.577638   6.882308   5.249535
    38  H    4.088193   4.756537   5.100730   6.091712   4.347044
    39  H    4.169569   5.207499   4.862844   6.479103   5.083326
                    6          7          8          9         10
     6  C    0.000000
     7  C    3.913814   0.000000
     8  H    2.747118   2.234145   0.000000
     9  C    4.403456   1.533648   3.471810   0.000000
    10  H    4.706758   3.447426   4.997523   2.218962   0.000000
    11  O    1.258251   4.833743   3.966574   5.068533   4.813465
    12  O    1.272501   4.363764   2.570830   5.128845   5.803927
    13  H    4.291635   1.101350   2.769972   2.120591   3.618818
    14  O    5.733600   2.437364   4.637095   1.419219   2.585178
    15  H    4.611716   2.148883   3.667403   1.106815   2.731343
    16  H    6.243191   2.613758   4.752258   1.932801   3.514120
    17  C    5.239516   3.174329   3.070418   3.776439   5.820870
    18  C    5.488719   2.437544   3.236494   2.960129   5.146439
    19  H    6.051176   4.158759   4.079517   4.526980   6.485226
    20  H    4.514318   3.207748   2.346323   4.060439   5.981722
    21  C    6.798496   3.463167   4.720829   3.447810   5.478066
    22  O    4.994882   1.437568   2.671432   2.467171   4.639681
    23  O    7.137740   3.486990   5.232605   3.173259   4.993422
    24  O    7.642295   4.609843   5.569572   4.565939   6.509971
    25  O    3.702580   4.530300   2.450146   5.590287   7.074357
    26  H    3.934369   4.483558   2.352718   5.733010   7.284092
    27  H    2.744274   4.269525   2.148291   5.232788   6.469874
    28  O    9.928320   6.101352   7.762404   5.960041   7.576738
    29  H    8.962669   5.129232   6.827555   5.011370   6.696119
    30  H   10.043085   6.338850   7.949740   6.065933   7.654336
    31  O    9.622367   6.324890   7.840120   5.748735   7.162810
    32  H    9.011958   5.797547   7.120371   5.390803   7.016774
    33  H    9.036224   5.654729   7.345334   4.977936   6.309071
    34  O    5.808906   3.424318   5.199845   3.267764   3.276622
    35  H    5.864774   2.971053   5.008378   2.593471   2.939231
    36  H    4.964646   3.139888   4.710981   2.957153   2.698557
    37  O    3.194580   7.041459   5.415883   7.591041   7.628803
    38  H    2.603405   6.502567   5.120703   6.923304   6.776910
    39  H    2.673091   6.358402   4.584032   7.021715   7.319164
                   11         12         13         14         15
    11  O    0.000000
    12  O    2.258383   0.000000
    13  H    5.101140   4.801436   0.000000
    14  O    6.331079   6.476481   2.565716   0.000000
    15  H    5.324949   5.229465   3.027027   2.070119   0.000000
    16  H    6.974182   6.835110   2.867444   1.000770   2.229462
    17  C    6.389948   5.053658   4.127387   4.585790   3.241080
    18  C    6.576224   5.543289   3.277267   3.471778   2.623942
    19  H    7.163498   5.827118   5.138013   5.249475   3.798799
    20  H    5.719593   4.143203   4.117807   5.075201   3.660446
    21  C    7.795476   6.974778   4.162364   3.427433   2.992490
    22  O    6.049710   5.159955   1.998546   2.930630   2.688906
    23  O    8.024572   7.501096   3.948369   2.643382   2.977455
    24  O    8.663653   7.706589   5.373085   4.588165   3.925793
    25  O    4.876099   2.707154   5.185311   6.817823   5.415528
    26  H    5.122328   2.942692   4.964505   6.871735   5.718695
    27  H    3.892207   1.727234   4.895034   6.540815   5.129141
    28  O   10.847375  10.207458   6.253226   5.062784   5.896681
    29  H    9.878148   9.261072   5.298182   4.161356   4.985196
    30  H   10.956747  10.317160   6.640184   5.254352   5.829705
    31  O   10.469722   9.936903   6.892928   5.174063   5.191414
    32  H    9.926933   9.229400   6.445787   5.018714   4.772063
    33  H    9.835317   9.442302   6.160111   4.286695   4.518117
    34  O    6.142499   6.672162   2.600643   2.819540   4.354957
    35  H    6.308925   6.692935   2.347734   1.888637   3.624703
    36  H    5.215956   5.906776   2.437523   2.917788   4.040239
    37  O    2.840328   2.872521   7.336232   8.921334   7.716697
    38  H    1.971082   2.680177   6.772526   8.226607   7.094772
    39  H    2.720673   2.046521   6.702712   8.369525   7.116929
                   16         17         18         19         20
    16  H    0.000000
    17  C    4.132121   0.000000
    18  C    2.903289   1.337251   0.000000
    19  H    4.708302   1.083743   2.072908   0.000000
    20  H    4.784728   1.086405   2.137850   1.871163   0.000000
    21  C    2.568326   2.506431   1.530998   2.662071   3.519703
    22  O    2.574869   2.393045   1.385030   3.349464   2.704308
    23  O    1.661716   3.602873   2.400327   3.894502   4.517198
    24  O    3.725736   2.825832   2.381700   2.480076   3.908997
    25  O    6.779684   3.559482   4.480157   4.157114   2.474803
    26  H    6.823921   3.851053   4.590600   4.572498   2.799198
    27  H    6.646287   3.907502   4.684771   4.588495   2.861835
    28  O    4.127112   5.933245   4.849694   6.005467   6.888841
    29  H    3.207316   5.137112   3.980047   5.317646   6.063570
    30  H    4.303192   5.834687   4.864084   5.746353   6.857898
    31  O    4.317743   5.426744   4.698721   5.098191   6.504830
    32  H    4.123884   4.546135   3.927254   4.163270   5.631690
    33  H    3.462958   5.223201   4.331596   5.072596   6.266003
    34  O    3.541623   6.497945   5.464911   7.406581   6.625889
    35  H    2.588062   5.861598   4.755094   6.703563   6.122548
    36  H    3.759972   6.288173   5.399560   7.214766   6.305206
    37  O    9.433556   7.840849   8.383869   8.510282   6.914985
    38  H    8.804986   7.589130   8.014049   8.293542   6.741282
    39  H    8.806519   6.977536   7.565881   7.653352   6.019042
                   21         22         23         24         25
    21  C    0.000000
    22  O    2.464037   0.000000
    23  O    1.278975   2.737549   0.000000
    24  O    1.254468   3.567268   2.254714   0.000000
    25  O    5.952073   4.530136   6.839830   6.377219   0.000000
    26  H    6.097218   4.419479   6.917804   6.608909   0.964721
    27  H    6.167340   4.584165   6.932903   6.715221   0.992935
    28  O    3.575683   5.106528   2.934384   3.725777   9.222278
    29  H    2.778482   4.166046   2.036226   3.187069   8.372740
    30  H    3.432482   5.356913   2.935440   3.317308   9.274213
    31  O    3.183755   5.532033   2.964661   2.728182   8.973382
    32  H    2.454723   4.898716   2.607364   1.778889   8.104273
    33  H    2.847209   4.991447   2.300510   2.793253   8.701275
    34  O    5.838900   4.317406   5.088253   7.084582   7.649450
    35  H    4.973661   3.731008   4.160032   6.205333   7.426555
    36  H    5.946647   4.287144   5.342024   7.180446   7.132582
    37  O    9.774358   7.985523  10.250262  10.478993   5.089291
    38  H    9.346627   7.564610   9.727295  10.112484   5.207780
    39  H    8.990496   7.201514   9.526926   9.669317   4.122352
                   26         27         28         29         30
    26  H    0.000000
    27  H    1.516384   0.000000
    28  O    9.157225   9.484802   0.000000
    29  H    8.310916   8.590092   0.973585   0.000000
    30  H    9.305692   9.547564   0.974393   1.482002   0.000000
    31  O    9.210766   9.188007   2.882294   2.877202   1.996350
    32  H    8.348771   8.375032   3.027007   2.838034   2.249645
    33  H    8.909704   8.830359   2.697634   2.467335   2.034853
    34  O    7.437202   7.206708   6.910340   6.067401   7.396790
    35  H    7.284507   7.051349   6.057452   5.201811   6.489626
    36  H    6.978185   6.595390   7.472757   6.581314   7.879550
    37  O    5.320352   4.224052  13.017032  12.060580  13.114920
    38  H    5.454039   4.260378  12.530593  11.565667  12.631209
    39  H    4.350963   3.273694  12.253168  11.305833  12.352020
                   31         32         33         34         35
    31  O    0.000000
    32  H    0.991069   0.000000
    33  H    0.970727   1.469759   0.000000
    34  O    7.776121   7.643506   6.870332   0.000000
    35  H    6.804128   6.688701   5.894826   0.979610   0.000000
    36  H    8.062171   7.864697   7.171756   0.967311   1.499243
    37  O   12.625255  11.951201  12.108652   8.703415   8.915014
    38  H   12.125272  11.504418  11.559974   7.960154   8.183559
    39  H   11.901956  11.192817  11.416781   8.296166   8.446374
                   36         37         38         39
    36  H    0.000000
    37  O    7.822215   0.000000
    38  H    7.050348   0.977723   0.000000
    39  H    7.457105   0.974959   1.443632   0.000000
 Stoichiometry    C10H18O11(2-)
 Framework group  C1[X(C10H18O11)]
 Deg. of freedom   111
 Full point group                 C1      NOp   1
 Largest Abelian subgroup         C1      NOp   1
 Largest concise Abelian subgroup C1      NOp   1
                         Standard orientation:                         
 ---------------------------------------------------------------------
 Center     Atomic      Atomic             Coordinates (Angstroms)
 Number     Number       Type             X           Y           Z
 ---------------------------------------------------------------------
      1          6           0       -2.357817    0.547679   -0.190259
      2          6           0       -1.995980    1.787899   -0.899894
      3          6           0       -1.417375   -0.071072    0.547213
      4          6           0       -0.712971    2.158511   -1.048902
      5          1           0       -2.818052    2.354950   -1.324678
      6          6           0       -3.803904    0.058313   -0.262871
      7          6           0       -0.045964    0.534874    0.721363
      8          1           0       -1.651345   -0.972708    1.097329
      9          6           0        0.413753    1.295779   -0.528341
     10          1           0       -0.422208    3.037979   -1.619075
     11          8           0       -4.629197    0.854345   -0.780964
     12          8           0       -4.064285   -1.090640    0.218137
     13          1           0       -0.101064    1.281896    1.528763
     14          8           0        1.557826    2.089556   -0.254119
     15          1           0        0.660866    0.549938   -1.307889
     16          1           0        2.283451    1.429138   -0.056999
     17          6           0        0.802396   -2.428389   -0.037401
     18          6           0        1.472617   -1.331475    0.331141
     19          1           0        1.317983   -3.137571   -0.674370
     20          1           0       -0.220171   -2.635529    0.265463
     21          6           0        2.900682   -1.062160   -0.150581
     22          8           0        0.952439   -0.383676    1.196820
     23          8           0        3.330353    0.138676   -0.054917
     24          8           0        3.537807   -2.032671   -0.625839
     25          8           0       -2.546669   -3.240379    0.853861
     26          1           0       -2.527545   -3.040865    1.797532
     27          1           0       -3.067803   -2.473125    0.499375
     28          8           0        6.031162    0.138134    1.092359
     29          1           0        5.067007    0.239902    1.003384
     30          1           0        6.221116   -0.281894    0.233909
     31          8           0        5.688628   -0.698716   -1.644422
     32          1           0        5.029476   -1.370266   -1.333363
     33          1           0        5.152907    0.089002   -1.457834
     34          8           0        0.223267    3.861880    1.485889
     35          1           0        0.890842    3.341252    0.993013
     36          1           0       -0.583114    3.614773    1.012204
     37          8           0       -6.869105   -0.837601   -0.347842
     38          1           0       -6.377463   -0.045338   -0.642036
     39          1           0       -6.085307   -1.312562   -0.015249
 ---------------------------------------------------------------------
 Rotational constants (GHZ):      0.4533215      0.1297558      0.1102147
 Leave Link  202 at Wed Feb  6 11:11:23 2019, MaxMem=    33554432 cpu:         0.2
 (Enter /global/apps/Gaussian/09.d01/l301.exe)
 Standard basis: 6-31G(d,p) (6D, 7F)
 Ernie: Thresh=  0.10000D-02 Tol=  0.10000D-05 Strict=F.
 There are   405 symmetry adapted cartesian basis functions of A   symmetry.
 There are   405 symmetry adapted basis functions of A   symmetry.
   405 basis functions,   714 primitive gaussians,   405 cartesian basis functions
    84 alpha electrons       84 beta electrons
       nuclear repulsion energy      1809.6591902066 Hartrees.
 IExCor=  402 DFT=T Ex+Corr=B3LYP ExCW=0 ScaHFX=  0.200000
 ScaDFX=  0.800000  0.720000  1.000000  0.810000 ScalE2=  1.000000  1.000000
 IRadAn=      0 IRanWt=     -1 IRanGd=            0 ICorTp=0 IEmpDi=131
 NAtoms=   39 NActive=   39 NUniq=   39 SFac= 1.00D+00 NAtFMM=   60 NAOKFM=F Big=F
 Integral buffers will be    131072 words long.
 Raffenetti 2 integral format.
 Two-electron integral symmetry is turned on.
 R6Disp:  Grimme-D3 Dispersion energy=       -0.0467471170 Hartrees.
 Nuclear repulsion after empirical dispersion term =     1809.6124430896 Hartrees.
 ------------------------------------------------------------------------------
 Polarizable Continuum Model (PCM)
 =================================
 Model                : PCM (using non-symmetric T matrix).
 Atomic radii         : UFF (Universal Force Field).
 Polarization charges : Total charges.
 Charge compensation  : None.
 Solution method      : On-the-fly selection.
 Cavity type          : Scaled VdW (van der Waals Surface) (Alpha=1.100).
 Cavity algorithm     : GePol (No added spheres)
                        Default sphere list used, NSphG=   39.
                        Lebedev-Laikov grids with approx.  5.0 points / Ang**2.
                        Smoothing algorithm: Karplus/York (Gamma=1.0000).
                        Polarization charges: spherical gaussians, with
                                              point-specific exponents (IZeta= 3).
                        Self-potential: point-specific (ISelfS= 7).
                        Self-field    : sphere-specific E.n sum rule (ISelfD= 2).
 Solvent              : Water, Eps=  78.355300 Eps(inf)=   1.777849
 ------------------------------------------------------------------------------
 GePol: Number of generator spheres                  =      39
 GePol: Total number of spheres                      =      39
 GePol: Number of exposed spheres                    =      39 (100.00%)
 GePol: Number of points                             =    3014
 GePol: Average weight of points                     =       0.13
 GePol: Minimum weight of points                     =   0.85D-11
 GePol: Maximum weight of points                     =    0.20577
 GePol: Number of points with low weight             =     166
 GePol: Fraction of low-weight points (<1% of avg)   =       5.51%
 GePol: Cavity surface area                          =    385.068 Ang**2
 GePol: Cavity volume                                =    416.067 Ang**3
 Leave Link  301 at Wed Feb  6 11:11:23 2019, MaxMem=    33554432 cpu:         2.4
 (Enter /global/apps/Gaussian/09.d01/linda-exe/../l302.exel)
 NPDir=0 NMtPBC=     1 NCelOv=     1 NCel=       1 NClECP=     1 NCelD=      1
         NCelK=      1 NCelE2=     1 NClLst=     1 CellRange=     0.0.
 One-electron integrals computed using PRISM.
 PrsmSu:  requested number of processors reduced to:   9 ShMem   1 Linda.
 NBasis=   405 RedAO= T EigKep=  7.61D-04  NBF=   405
 NBsUse=   405 1.00D-06 EigRej= -1.00D+00 NBFU=   405
 Precomputing XC quadrature grid using
 IXCGrd= 4 IRadAn=           0 IRanWt=          -1 IRanGd=           0 AccXCQ= 0.00D+00.
 Generated NRdTot=       0 NPtTot=           0 NUsed=           0 NTot=          32
 NSgBfM=   394   394   394   394   394 MxSgAt=    39 MxSgA2=    39.
 Leave Link  302 at Wed Feb  6 11:11:29 2019, MaxMem=    33554432 cpu:        15.0
 (Enter /global/apps/Gaussian/09.d01/l303.exe)
 DipDrv:  MaxL=1.
 Leave Link  303 at Wed Feb  6 11:11:29 2019, MaxMem=    33554432 cpu:         2.3
 (Enter /global/apps/Gaussian/09.d01/linda-exe/../l401.exel)
 ExpMin= 1.61D-01 ExpMax= 5.48D+03 ExpMxC= 8.25D+02 IAcc=1 IRadAn=         1 AccDes= 0.00D+00
 Harris functional with IExCor=  402 and IRadAn=       1 diagonalized for initial guess.
 HarFok:  IExCor=  402 AccDes= 0.00D+00 IRadAn=         1 IDoV= 1 UseB2=F ITyADJ=14
 ICtDFT=  3500011 ScaDFX=  1.000000  1.000000  1.000000  1.000000
 FoFCou: FMM=F IPFlag=           0 FMFlag=      100000 FMFlg1=           0
         NFxFlg=           0 DoJE=T BraDBF=F KetDBF=T FulRan=T
         wScrn=  0.000000 ICntrl=     500 IOpCl=  0 I1Cent=   200000004 NGrid=           0
         NMat0=    1 NMatS0=      1 NMatT0=    0 NMatD0=    1 NMtDS0=    0 NMtDT0=    0
 Petite list used in FoFCou.
 Harris En= -1219.99400399537    
 JPrj=0 DoOrth=F DoCkMO=F.
 Leave Link  401 at Wed Feb  6 11:11:32 2019, MaxMem=    33554432 cpu:        36.8
 (Enter /global/apps/Gaussian/09.d01/linda-exe/../l502.exel)
 Closed shell SCF:
 Using DIIS extrapolation, IDIIS=  1040.
 Integral symmetry usage will be decided dynamically.
 IVT=      521776 IEndB=      521776 NGot=    33554432 MDV=    33213727
 LenX=    33213727 LenY=    33049261
 Requested convergence on RMS density matrix=1.00D-08 within 128 cycles.
 Requested convergence on MAX density matrix=1.00D-06.
 Requested convergence on             energy=1.00D-06.
 No special actions if energy rises.
 Fock matrices will be formed incrementally for  20 cycles.

 Cycle   1  Pass 1  IDiag  1:
 FoFJK:  IHMeth= 1 ICntrl=       0 DoSepK=F KAlg= 0 I1Cent=   0 FoldK=F
 IRaf= 650000000 NMat=   1 IRICut=       1 DoRegI=T DoRafI=F ISym2E= 0.
 FoFCou: FMM=F IPFlag=           0 FMFlag=      100000 FMFlg1=           0
         NFxFlg=           0 DoJE=F BraDBF=F KetDBF=F FulRan=T
         wScrn=  0.000000 ICntrl=       0 IOpCl=  0 I1Cent=           0 NGrid=           0
         NMat0=    1 NMatS0=      1 NMatT0=    0 NMatD0=    1 NMtDS0=    0 NMtDT0=    0
 Symmetry not used in FoFCou.
 Inv3:  Mode=2 IEnd=    18168392.
 Iteration    1 A*A^-1 deviation from unit magnitude is 7.77D-15 for   2753.
 Iteration    1 A*A^-1 deviation from orthogonality  is 7.99D-15 for   2292    692.
 Iteration    1 A^-1*A deviation from unit magnitude is 1.53D-14 for    293.
 Iteration    1 A^-1*A deviation from orthogonality  is 7.28D-13 for    986    891.
 E= -1218.96487827513    
 DIIS: error= 3.91D-02 at cycle   1 NSaved=   1.
 NSaved= 1 IEnMin= 1 EnMin= -1218.96487827513     IErMin= 1 ErrMin= 3.91D-02
 ErrMax= 3.91D-02  0.00D+00 EMaxC= 1.00D-01 BMatC= 9.95D-01 BMatP= 9.95D-01
 IDIUse=3 WtCom= 6.09D-01 WtEn= 3.91D-01
 Coeff-Com:  0.100D+01
 Coeff-En:   0.100D+01
 Coeff:      0.100D+01
 Gap=     0.167 Goal=   None    Shift=    0.000
 GapD=    0.167 DampG=1.000 DampE=0.500 DampFc=0.5000 IDamp=-1.
 Damping current iteration by 5.00D-01
 RMSDP=4.52D-03 MaxDP=1.66D-01              OVMax= 2.05D-01

 Cycle   2  Pass 1  IDiag  1:
 RMSU=  2.25D-03    CP:  9.86D-01
 E= -1219.24844542393     Delta-E=       -0.283567148800 Rises=F Damp=T
 DIIS: error= 7.51D-03 at cycle   2 NSaved=   2.
 NSaved= 2 IEnMin= 2 EnMin= -1219.24844542393     IErMin= 2 ErrMin= 7.51D-03
 ErrMax= 7.51D-03  0.00D+00 EMaxC= 1.00D-01 BMatC= 6.85D-02 BMatP= 9.95D-01
 IDIUse=3 WtCom= 9.25D-01 WtEn= 7.51D-02
 Coeff-Com:  0.155D+00 0.845D+00
 Coeff-En:   0.249D+00 0.751D+00
 Coeff:      0.162D+00 0.838D+00
 Gap=     0.202 Goal=   None    Shift=    0.000
 RMSDP=9.41D-04 MaxDP=4.20D-02 DE=-2.84D-01 OVMax= 1.56D-01

 Cycle   3  Pass 1  IDiag  1:
 RMSU=  8.84D-04    CP:  9.83D-01  8.58D-01
 E= -1219.69652025261     Delta-E=       -0.448074828681 Rises=F Damp=F
 DIIS: error= 3.77D-03 at cycle   3 NSaved=   3.
 NSaved= 3 IEnMin= 3 EnMin= -1219.69652025261     IErMin= 3 ErrMin= 3.77D-03
 ErrMax= 3.77D-03  0.00D+00 EMaxC= 1.00D-01 BMatC= 2.49D-02 BMatP= 6.85D-02
 IDIUse=3 WtCom= 9.62D-01 WtEn= 3.77D-02
 Coeff-Com:  0.504D-01 0.385D+00 0.565D+00
 Coeff-En:   0.000D+00 0.000D+00 0.100D+01
 Coeff:      0.485D-01 0.370D+00 0.581D+00
 Gap=     0.169 Goal=   None    Shift=    0.000
 RMSDP=5.42D-04 MaxDP=2.59D-02 DE=-4.48D-01 OVMax= 4.18D-02

 Cycle   4  Pass 1  IDiag  1:
 RMSU=  3.55D-04    CP:  9.85D-01  8.74D-01  5.40D-01
 E= -1219.71448099437     Delta-E=       -0.017960741753 Rises=F Damp=F
 DIIS: error= 2.72D-03 at cycle   4 NSaved=   4.
 NSaved= 4 IEnMin= 4 EnMin= -1219.71448099437     IErMin= 4 ErrMin= 2.72D-03
 ErrMax= 2.72D-03  0.00D+00 EMaxC= 1.00D-01 BMatC= 6.67D-03 BMatP= 2.49D-02
 IDIUse=3 WtCom= 9.73D-01 WtEn= 2.72D-02
 Coeff-Com:  0.106D-01 0.884D-01 0.345D+00 0.556D+00
 Coeff-En:   0.000D+00 0.000D+00 0.191D+00 0.809D+00
 Coeff:      0.103D-01 0.860D-01 0.341D+00 0.563D+00
 Gap=     0.169 Goal=   None    Shift=    0.000
 RMSDP=2.13D-04 MaxDP=1.48D-02 DE=-1.80D-02 OVMax= 2.25D-02

 Cycle   5  Pass 1  IDiag  1:
 RMSU=  1.32D-04    CP:  9.85D-01  8.60D-01  6.39D-01  6.10D-01
 E= -1219.71902804683     Delta-E=       -0.004547052467 Rises=F Damp=F
 DIIS: error= 1.06D-03 at cycle   5 NSaved=   5.
 NSaved= 5 IEnMin= 5 EnMin= -1219.71902804683     IErMin= 5 ErrMin= 1.06D-03
 ErrMax= 1.06D-03  0.00D+00 EMaxC= 1.00D-01 BMatC= 1.12D-03 BMatP= 6.67D-03
 IDIUse=3 WtCom= 9.89D-01 WtEn= 1.06D-02
 Coeff-Com:  0.201D-02 0.990D-02 0.152D+00 0.360D+00 0.476D+00
 Coeff-En:   0.000D+00 0.000D+00 0.000D+00 0.112D+00 0.888D+00
 Coeff:      0.199D-02 0.980D-02 0.150D+00 0.358D+00 0.481D+00
 Gap=     0.169 Goal=   None    Shift=    0.000
 RMSDP=8.22D-05 MaxDP=4.85D-03 DE=-4.55D-03 OVMax= 9.84D-03

 Cycle   6  Pass 1  IDiag  1:
 RMSU=  3.78D-05    CP:  9.85D-01  8.62D-01  6.49D-01  6.58D-01  4.70D-01
 E= -1219.71985521801     Delta-E=       -0.000827171176 Rises=F Damp=F
 DIIS: error= 3.13D-04 at cycle   6 NSaved=   6.
 NSaved= 6 IEnMin= 6 EnMin= -1219.71985521801     IErMin= 6 ErrMin= 3.13D-04
 ErrMax= 3.13D-04  0.00D+00 EMaxC= 1.00D-01 BMatC= 8.73D-05 BMatP= 1.12D-03
 IDIUse=3 WtCom= 9.97D-01 WtEn= 3.13D-03
 Coeff-Com:  0.700D-03 0.393D-03 0.713D-01 0.185D+00 0.300D+00 0.442D+00
 Coeff-En:   0.000D+00 0.000D+00 0.000D+00 0.000D+00 0.000D+00 0.100D+01
 Coeff:      0.698D-03 0.391D-03 0.711D-01 0.185D+00 0.299D+00 0.444D+00
 Gap=     0.169 Goal=   None    Shift=    0.000
 RMSDP=2.11D-05 MaxDP=1.67D-03 DE=-8.27D-04 OVMax= 2.22D-03

 Cycle   7  Pass 1  IDiag  1:
 RMSU=  1.06D-05    CP:  9.85D-01  8.63D-01  6.52D-01  6.59D-01  5.18D-01
                    CP:  5.51D-01
 E= -1219.71991822231     Delta-E=       -0.000063004296 Rises=F Damp=F
 DIIS: error= 4.38D-05 at cycle   7 NSaved=   7.
 NSaved= 7 IEnMin= 7 EnMin= -1219.71991822231     IErMin= 7 ErrMin= 4.38D-05
 ErrMax= 4.38D-05  0.00D+00 EMaxC= 1.00D-01 BMatC= 4.05D-06 BMatP= 8.73D-05
 IDIUse=1 WtCom= 1.00D+00 WtEn= 0.00D+00
 Coeff-Com:  0.194D-03-0.120D-02 0.188D-01 0.528D-01 0.983D-01 0.225D+00
 Coeff-Com:  0.606D+00
 Coeff:      0.194D-03-0.120D-02 0.188D-01 0.528D-01 0.983D-01 0.225D+00
 Coeff:      0.606D+00
 Gap=     0.169 Goal=   None    Shift=    0.000
 RMSDP=4.97D-06 MaxDP=2.72D-04 DE=-6.30D-05 OVMax= 3.91D-04

 Cycle   8  Pass 1  IDiag  1:
 RMSU=  2.87D-06    CP:  9.85D-01  8.63D-01  6.51D-01  6.61D-01  5.21D-01
                    CP:  5.80D-01  6.48D-01
 E= -1219.71992124600     Delta-E=       -0.000003023692 Rises=F Damp=F
 DIIS: error= 1.59D-05 at cycle   8 NSaved=   8.
 NSaved= 8 IEnMin= 8 EnMin= -1219.71992124600     IErMin= 8 ErrMin= 1.59D-05
 ErrMax= 1.59D-05  0.00D+00 EMaxC= 1.00D-01 BMatC= 2.28D-07 BMatP= 4.05D-06
 IDIUse=1 WtCom= 1.00D+00 WtEn= 0.00D+00
 Coeff-Com:  0.854D-04-0.605D-03 0.617D-02 0.179D-01 0.354D-01 0.895D-01
 Coeff-Com:  0.298D+00 0.554D+00
 Coeff:      0.854D-04-0.605D-03 0.617D-02 0.179D-01 0.354D-01 0.895D-01
 Coeff:      0.298D+00 0.554D+00
 Gap=     0.169 Goal=   None    Shift=    0.000
 RMSDP=1.56D-06 MaxDP=7.05D-05 DE=-3.02D-06 OVMax= 1.49D-04

 Cycle   9  Pass 1  IDiag  1:
 RMSU=  9.79D-07    CP:  9.85D-01  8.63D-01  6.51D-01  6.62D-01  5.22D-01
                    CP:  5.84D-01  6.85D-01  6.18D-01
 E= -1219.71992141830     Delta-E=       -0.000000172301 Rises=F Damp=F
 DIIS: error= 5.66D-06 at cycle   9 NSaved=   9.
 NSaved= 9 IEnMin= 9 EnMin= -1219.71992141830     IErMin= 9 ErrMin= 5.66D-06
 ErrMax= 5.66D-06  0.00D+00 EMaxC= 1.00D-01 BMatC= 3.55D-08 BMatP= 2.28D-07
 IDIUse=1 WtCom= 1.00D+00 WtEn= 0.00D+00
 Coeff-Com:  0.199D-04-0.166D-03 0.520D-03 0.169D-02 0.430D-02 0.134D-01
 Coeff-Com:  0.688D-01 0.310D+00 0.602D+00
 Coeff:      0.199D-04-0.166D-03 0.520D-03 0.169D-02 0.430D-02 0.134D-01
 Coeff:      0.688D-01 0.310D+00 0.602D+00
 Gap=     0.169 Goal=   None    Shift=    0.000
 RMSDP=4.72D-07 MaxDP=2.27D-05 DE=-1.72D-07 OVMax= 4.50D-05

 Cycle  10  Pass 1  IDiag  1:
 RMSU=  2.54D-07    CP:  9.85D-01  8.63D-01  6.52D-01  6.61D-01  5.22D-01
                    CP:  5.85D-01  6.89D-01  6.90D-01  6.71D-01
 E= -1219.71992144648     Delta-E=       -0.000000028181 Rises=F Damp=F
 DIIS: error= 1.51D-06 at cycle  10 NSaved=  10.
 NSaved=10 IEnMin=10 EnMin= -1219.71992144648     IErMin=10 ErrMin= 1.51D-06
 ErrMax= 1.51D-06  0.00D+00 EMaxC= 1.00D-01 BMatC= 2.44D-09 BMatP= 3.55D-08
 IDIUse=1 WtCom= 1.00D+00 WtEn= 0.00D+00
 Coeff-Com:  0.526D-05-0.419D-04-0.123D-03-0.302D-03-0.103D-03 0.928D-03
 Coeff-Com:  0.146D-01 0.124D+00 0.303D+00 0.558D+00
 Coeff:      0.526D-05-0.419D-04-0.123D-03-0.302D-03-0.103D-03 0.928D-03
 Coeff:      0.146D-01 0.124D+00 0.303D+00 0.558D+00
 Gap=     0.169 Goal=   None    Shift=    0.000
 RMSDP=1.29D-07 MaxDP=6.17D-06 DE=-2.82D-08 OVMax= 1.08D-05

 Cycle  11  Pass 1  IDiag  1:
 RMSU=  8.57D-08    CP:  9.85D-01  8.63D-01  6.52D-01  6.62D-01  5.22D-01
                    CP:  5.85D-01  6.90D-01  6.97D-01  7.14D-01  6.92D-01
 E= -1219.71992144826     Delta-E=       -0.000000001780 Rises=F Damp=F
 DIIS: error= 4.89D-07 at cycle  11 NSaved=  11.
 NSaved=11 IEnMin=11 EnMin= -1219.71992144826     IErMin=11 ErrMin= 4.89D-07
 ErrMax= 4.89D-07  0.00D+00 EMaxC= 1.00D-01 BMatC= 2.63D-10 BMatP= 2.44D-09
 IDIUse=1 WtCom= 1.00D+00 WtEn= 0.00D+00
 Coeff-Com: -0.399D-07-0.184D-05-0.124D-03-0.364D-03-0.564D-03-0.106D-02
 Coeff-Com: -0.944D-03 0.278D-01 0.795D-01 0.286D+00 0.610D+00
 Coeff:     -0.399D-07-0.184D-05-0.124D-03-0.364D-03-0.564D-03-0.106D-02
 Coeff:     -0.944D-03 0.278D-01 0.795D-01 0.286D+00 0.610D+00
 Gap=     0.169 Goal=   None    Shift=    0.000
 RMSDP=4.34D-08 MaxDP=2.57D-06 DE=-1.78D-09 OVMax= 4.59D-06

 Cycle  12  Pass 1  IDiag  1:
 RMSU=  2.54D-08    CP:  9.85D-01  8.63D-01  6.52D-01  6.61D-01  5.22D-01
                    CP:  5.85D-01  6.90D-01  7.02D-01  7.13D-01  7.49D-01
                    CP:  6.79D-01
 E= -1219.71992144843     Delta-E=       -0.000000000170 Rises=F Damp=F
 DIIS: error= 2.07D-07 at cycle  12 NSaved=  12.
 NSaved=12 IEnMin=12 EnMin= -1219.71992144843     IErMin=12 ErrMin= 2.07D-07
 ErrMax= 2.07D-07  0.00D+00 EMaxC= 1.00D-01 BMatC= 4.46D-11 BMatP= 2.63D-10
 IDIUse=1 WtCom= 1.00D+00 WtEn= 0.00D+00
 Coeff-Com: -0.476D-06 0.151D-05-0.674D-04-0.205D-03-0.337D-03-0.688D-03
 Coeff-Com: -0.157D-02 0.917D-02 0.287D-01 0.141D+00 0.383D+00 0.441D+00
 Coeff:     -0.476D-06 0.151D-05-0.674D-04-0.205D-03-0.337D-03-0.688D-03
 Coeff:     -0.157D-02 0.917D-02 0.287D-01 0.141D+00 0.383D+00 0.441D+00
 Gap=     0.169 Goal=   None    Shift=    0.000
 RMSDP=1.70D-08 MaxDP=1.06D-06 DE=-1.70D-10 OVMax= 2.36D-06

 Cycle  13  Pass 1  IDiag  1:
 RMSU=  9.98D-09    CP:  9.85D-01  8.63D-01  6.52D-01  6.61D-01  5.22D-01
                    CP:  5.85D-01  6.90D-01  7.02D-01  7.15D-01  7.51D-01
                    CP:  7.17D-01  4.95D-01
 E= -1219.71992144847     Delta-E=       -0.000000000041 Rises=F Damp=F
 DIIS: error= 7.15D-08 at cycle  13 NSaved=  13.
 NSaved=13 IEnMin=13 EnMin= -1219.71992144847     IErMin=13 ErrMin= 7.15D-08
 ErrMax= 7.15D-08  0.00D+00 EMaxC= 1.00D-01 BMatC= 3.90D-12 BMatP= 4.46D-11
 IDIUse=1 WtCom= 1.00D+00 WtEn= 0.00D+00
 Coeff-Com: -0.315D-06 0.118D-05-0.187D-04-0.597D-04-0.104D-03-0.211D-03
 Coeff-Com: -0.762D-03 0.101D-02 0.379D-02 0.343D-01 0.123D+00 0.257D+00
 Coeff-Com:  0.582D+00
 Coeff:     -0.315D-06 0.118D-05-0.187D-04-0.597D-04-0.104D-03-0.211D-03
 Coeff:     -0.762D-03 0.101D-02 0.379D-02 0.343D-01 0.123D+00 0.257D+00
 Coeff:      0.582D+00
 Gap=     0.169 Goal=   None    Shift=    0.000
 RMSDP=5.08D-09 MaxDP=2.87D-07 DE=-4.09D-11 OVMax= 6.14D-07

 CoulSu:  requested number of processors reduced to:  11 ShMem   4 Linda.
 Error on total polarization charges =  0.00713
 SCF Done:  E(RB3LYP) =  -1219.71992145     A.U. after   13 cycles
            NFock= 13  Conv=0.51D-08     -V/T= 2.0087
 KE= 1.209191982859D+03 PE=-6.521363829583D+03 EE= 2.282839482186D+03
 Leave Link  502 at Wed Feb  6 11:12:00 2019, MaxMem=    33554432 cpu:       417.8
 (Enter /global/apps/Gaussian/09.d01/l601.exe)
 Copying SCF densities to generalized density rwf, IOpCl= 0 IROHF=0.

 **********************************************************************

            Population analysis using the SCF density.

 **********************************************************************

 Orbital symmetries:
       Occupied  (A) (A) (A) (A) (A) (A) (A) (A) (A) (A) (A) (A)
                 (A) (A) (A) (A) (A) (A) (A) (A) (A) (A) (A) (A)
                 (A) (A) (A) (A) (A) (A) (A) (A) (A) (A) (A) (A)
                 (A) (A) (A) (A) (A) (A) (A) (A) (A) (A) (A) (A)
                 (A) (A) (A) (A) (A) (A) (A) (A) (A) (A) (A) (A)
                 (A) (A) (A) (A) (A) (A) (A) (A) (A) (A) (A) (A)
                 (A) (A) (A) (A) (A) (A) (A) (A) (A) (A) (A) (A)
       Virtual   (A) (A) (A) (A) (A) (A) (A) (A) (A) (A) (A) (A)
                 (A) (A) (A) (A) (A) (A) (A) (A) (A) (A) (A) (A)
                 (A) (A) (A) (A) (A) (A) (A) (A) (A) (A) (A) (A)
                 (A) (A) (A) (A) (A) (A) (A) (A) (A) (A) (A) (A)
                 (A) (A) (A) (A) (A) (A) (A) (A) (A) (A) (A) (A)
                 (A) (A) (A) (A) (A) (A) (A) (A) (A) (A) (A) (A)
                 (A) (A) (A) (A) (A) (A) (A) (A) (A) (A) (A) (A)
                 (A) (A) (A) (A) (A) (A) (A) (A) (A) (A) (A) (A)
                 (A) (A) (A) (A) (A) (A) (A) (A) (A) (A) (A) (A)
                 (A) (A) (A) (A) (A) (A) (A) (A) (A) (A) (A) (A)
                 (A) (A) (A) (A) (A) (A) (A) (A) (A) (A) (A) (A)
                 (A) (A) (A) (A) (A) (A) (A) (A) (A) (A) (A) (A)
                 (A) (A) (A) (A) (A) (A) (A) (A) (A) (A) (A) (A)
                 (A) (A) (A) (A) (A) (A) (A) (A) (A) (A) (A) (A)
                 (A) (A) (A) (A) (A) (A) (A) (A) (A) (A) (A) (A)
                 (A) (A) (A) (A) (A) (A) (A) (A) (A) (A) (A) (A)
                 (A) (A) (A) (A) (A) (A) (A) (A) (A) (A) (A) (A)
                 (A) (A) (A) (A) (A) (A) (A) (A) (A) (A) (A) (A)
                 (A) (A) (A) (A) (A) (A) (A) (A) (A) (A) (A) (A)
                 (A) (A) (A) (A) (A) (A) (A) (A) (A) (A) (A) (A)
                 (A) (A) (A) (A) (A) (A) (A) (A) (A) (A) (A) (A)
                 (A) (A) (A) (A) (A) (A) (A) (A) (A) (A) (A) (A)
                 (A) (A) (A) (A) (A) (A) (A) (A) (A) (A) (A) (A)
                 (A) (A) (A) (A) (A) (A) (A) (A) (A) (A) (A) (A)
                 (A) (A) (A) (A) (A) (A) (A) (A) (A) (A) (A) (A)
                 (A) (A) (A) (A) (A) (A) (A) (A) (A) (A) (A) (A)
                 (A) (A) (A) (A) (A) (A) (A) (A) (A)
 The electronic state is 1-A.
 Alpha  occ. eigenvalues --  -19.15725 -19.13284 -19.11824 -19.11696 -19.11556
 Alpha  occ. eigenvalues --  -19.10537 -19.10286 -19.09906 -19.09280 -19.08940
 Alpha  occ. eigenvalues --  -19.08694 -10.28157 -10.27045 -10.23907 -10.23521
 Alpha  occ. eigenvalues --  -10.23316 -10.18648 -10.18539 -10.18495 -10.18412
 Alpha  occ. eigenvalues --  -10.17246  -1.04995  -1.02566  -1.01799  -1.00631
 Alpha  occ. eigenvalues --   -0.97624  -0.97523  -0.97172  -0.96051  -0.95285
 Alpha  occ. eigenvalues --   -0.94139  -0.92870  -0.83345  -0.76338  -0.73849
 Alpha  occ. eigenvalues --   -0.71780  -0.63349  -0.60031  -0.59126  -0.55042
 Alpha  occ. eigenvalues --   -0.51720  -0.50896  -0.49722  -0.49041  -0.48801
 Alpha  occ. eigenvalues --   -0.48032  -0.47429  -0.46442  -0.46187  -0.45775
 Alpha  occ. eigenvalues --   -0.44638  -0.43635  -0.42891  -0.42061  -0.40897
 Alpha  occ. eigenvalues --   -0.39997  -0.39874  -0.39620  -0.39172  -0.38070
 Alpha  occ. eigenvalues --   -0.37409  -0.36604  -0.35815  -0.35668  -0.35280
 Alpha  occ. eigenvalues --   -0.35263  -0.34631  -0.32331  -0.30192  -0.29207
 Alpha  occ. eigenvalues --   -0.27981  -0.27886  -0.27813  -0.27200  -0.26694
 Alpha  occ. eigenvalues --   -0.25829  -0.25797  -0.25086  -0.24668  -0.24258
 Alpha  occ. eigenvalues --   -0.23964  -0.23576  -0.22832  -0.20961
 Alpha virt. eigenvalues --   -0.04084  -0.00983   0.03842   0.09268   0.10418
 Alpha virt. eigenvalues --    0.11328   0.11399   0.12384   0.13575   0.14441
 Alpha virt. eigenvalues --    0.15581   0.15991   0.17215   0.17392   0.18259
 Alpha virt. eigenvalues --    0.18658   0.19457   0.20378   0.21555   0.22215
 Alpha virt. eigenvalues --    0.23005   0.24006   0.24648   0.25118   0.25827
 Alpha virt. eigenvalues --    0.26986   0.28491   0.29029   0.30016   0.32957
 Alpha virt. eigenvalues --    0.35055   0.35707   0.36297   0.38046   0.40956
 Alpha virt. eigenvalues --    0.41956   0.45056   0.45870   0.47449   0.52379
 Alpha virt. eigenvalues --    0.53497   0.55667   0.56124   0.57008   0.58206
 Alpha virt. eigenvalues --    0.59826   0.60142   0.60905   0.62586   0.63522
 Alpha virt. eigenvalues --    0.63800   0.63876   0.64378   0.65869   0.66077
 Alpha virt. eigenvalues --    0.67999   0.68293   0.70189   0.70543   0.72029
 Alpha virt. eigenvalues --    0.73489   0.75039   0.75270   0.76417   0.76673
 Alpha virt. eigenvalues --    0.77240   0.77653   0.78578   0.79577   0.80213
 Alpha virt. eigenvalues --    0.80794   0.81030   0.81733   0.81842   0.82211
 Alpha virt. eigenvalues --    0.83210   0.83569   0.84119   0.86065   0.86839
 Alpha virt. eigenvalues --    0.87133   0.88213   0.89530   0.89778   0.90611
 Alpha virt. eigenvalues --    0.91833   0.92073   0.92366   0.93351   0.94565
 Alpha virt. eigenvalues --    0.95500   0.96060   0.97768   0.98693   0.99252
 Alpha virt. eigenvalues --    1.00957   1.01812   1.03348   1.04026   1.04871
 Alpha virt. eigenvalues --    1.05148   1.05896   1.07452   1.07935   1.09160
 Alpha virt. eigenvalues --    1.11212   1.11508   1.11777   1.13439   1.14295
 Alpha virt. eigenvalues --    1.16166   1.16609   1.17145   1.19110   1.21370
 Alpha virt. eigenvalues --    1.21749   1.22768   1.23369   1.24106   1.25927
 Alpha virt. eigenvalues --    1.27153   1.28029   1.28685   1.29521   1.31785
 Alpha virt. eigenvalues --    1.33201   1.33706   1.34658   1.36167   1.36375
 Alpha virt. eigenvalues --    1.37427   1.37997   1.38711   1.39622   1.40882
 Alpha virt. eigenvalues --    1.43076   1.45314   1.46408   1.46752   1.48006
 Alpha virt. eigenvalues --    1.48737   1.50173   1.50928   1.52387   1.55248
 Alpha virt. eigenvalues --    1.55615   1.56118   1.56800   1.57818   1.58628
 Alpha virt. eigenvalues --    1.59106   1.59342   1.61190   1.62472   1.63026
 Alpha virt. eigenvalues --    1.63879   1.64300   1.64825   1.65507   1.65978
 Alpha virt. eigenvalues --    1.66722   1.67812   1.68631   1.69802   1.70834
 Alpha virt. eigenvalues --    1.72094   1.73702   1.74695   1.76597   1.77955
 Alpha virt. eigenvalues --    1.79164   1.80938   1.82144   1.82737   1.83901
 Alpha virt. eigenvalues --    1.84901   1.85409   1.86340   1.86978   1.89706
 Alpha virt. eigenvalues --    1.90940   1.91909   1.92379   1.93168   1.94194
 Alpha virt. eigenvalues --    1.96350   1.96541   1.97886   1.99703   2.00216
 Alpha virt. eigenvalues --    2.02522   2.03718   2.05372   2.05650   2.06998
 Alpha virt. eigenvalues --    2.07632   2.08981   2.10559   2.11589   2.12356
 Alpha virt. eigenvalues --    2.15258   2.16987   2.19010   2.21434   2.27076
 Alpha virt. eigenvalues --    2.28290   2.29694   2.30618   2.31248   2.31786
 Alpha virt. eigenvalues --    2.32281   2.32949   2.35150   2.36121   2.36424
 Alpha virt. eigenvalues --    2.36841   2.38548   2.39397   2.41320   2.42217
 Alpha virt. eigenvalues --    2.43015   2.43472   2.44346   2.44536   2.45725
 Alpha virt. eigenvalues --    2.47648   2.49378   2.49504   2.51495   2.52217
 Alpha virt. eigenvalues --    2.53425   2.53901   2.54210   2.56918   2.57833
 Alpha virt. eigenvalues --    2.58346   2.59858   2.62080   2.62458   2.63277
 Alpha virt. eigenvalues --    2.63457   2.64440   2.65120   2.65487   2.65671
 Alpha virt. eigenvalues --    2.66334   2.68086   2.69361   2.69959   2.71198
 Alpha virt. eigenvalues --    2.71453   2.72136   2.73267   2.73831   2.75240
 Alpha virt. eigenvalues --    2.75346   2.76152   2.77473   2.78126   2.83209
 Alpha virt. eigenvalues --    2.84966   2.87018   2.88472   2.91462   2.95217
 Alpha virt. eigenvalues --    2.96216   2.96849   2.99081   2.99461   3.02327
 Alpha virt. eigenvalues --    3.03195   3.04621   3.05172   3.06025   3.06786
 Alpha virt. eigenvalues --    3.08713   3.10751   3.10984   3.14120   3.18319
 Alpha virt. eigenvalues --    3.19421   3.28314   3.29035   3.34237   3.37686
 Alpha virt. eigenvalues --    3.38135   3.39954   3.41949   3.42604   3.45549
 Alpha virt. eigenvalues --    3.48440   3.51560   3.57160   3.61465   3.61914
 Alpha virt. eigenvalues --    3.62262   3.62986   3.63876   3.65544   3.70179
 Alpha virt. eigenvalues --    3.76434   3.78032   3.81102   3.89047   3.91906
 Alpha virt. eigenvalues --    4.07631   4.08987   4.15068   4.17954   4.20575
 Alpha virt. eigenvalues --    4.28283   4.28481   4.36307   4.40533   4.45227
 Alpha virt. eigenvalues --    4.51339   4.54009   4.61143   4.62539   4.71448
 Alpha virt. eigenvalues --    4.85201
          Condensed to atoms (all electrons):
               1          2          3          4          5          6
     1  C    5.097270   0.384195   0.499279  -0.025937  -0.047454   0.326158
     2  C    0.384195   4.972678  -0.063652   0.534412   0.361115  -0.036640
     3  C    0.499279  -0.063652   5.330954  -0.042237   0.008178  -0.038517
     4  C   -0.025937   0.534412  -0.042237   5.123643  -0.044183   0.005883
     5  H   -0.047454   0.361115   0.008178  -0.044183   0.614593  -0.009674
     6  C    0.326158  -0.036640  -0.038517   0.005883  -0.009674   4.368660
     7  C   -0.020951  -0.019232   0.234048  -0.024905  -0.000239   0.004316
     8  H   -0.043018   0.007177   0.323335  -0.000219  -0.000130  -0.012361
     9  C   -0.019414  -0.037930  -0.035480   0.323384   0.005364  -0.000143
    10  H    0.003583  -0.026646   0.000270   0.361547  -0.006739  -0.000095
    11  O   -0.106526   0.002095   0.004156   0.001047   0.021699   0.452705
    12  O   -0.099197   0.003984   0.005546  -0.000053   0.000308   0.389002
    13  H   -0.003836   0.002428  -0.044172   0.000288  -0.000018  -0.000210
    14  O    0.000292   0.002112   0.004058  -0.035374  -0.000050   0.000001
    15  H    0.001452  -0.001185   0.007399  -0.051710  -0.000145  -0.000063
    16  H   -0.000032  -0.000125   0.000340   0.004586   0.000003   0.000000
    17  C   -0.000241   0.000028   0.006858  -0.000062   0.000000   0.000012
    18  C    0.000049   0.000016  -0.006672  -0.000048   0.000000  -0.000002
    19  H    0.000012   0.000000  -0.000022   0.000001   0.000000   0.000000
    20  H    0.000051   0.000000  -0.001293  -0.000019   0.000000  -0.000023
    21  C    0.000027   0.000001  -0.000290  -0.000015   0.000000   0.000000
    22  O    0.003055   0.000274  -0.033923   0.002982   0.000001  -0.000036
    23  O    0.000000   0.000000   0.000019   0.000139   0.000000   0.000000
    24  O    0.000000   0.000000   0.000001   0.000000   0.000000   0.000000
    25  O   -0.000571   0.000002  -0.010909   0.000000   0.000000  -0.000071
    26  H   -0.000054   0.000000  -0.000830   0.000000   0.000000   0.000077
    27  H   -0.001040  -0.000097   0.002219   0.000001  -0.000004  -0.000042
    28  O    0.000000   0.000000   0.000000   0.000000   0.000000   0.000000
    29  H    0.000000   0.000000   0.000000   0.000000   0.000000   0.000000
    30  H    0.000000   0.000000   0.000000   0.000000   0.000000   0.000000
    31  O    0.000000   0.000000   0.000000   0.000000   0.000000   0.000000
    32  H    0.000000   0.000000   0.000000   0.000000   0.000000   0.000000
    33  H    0.000000   0.000000   0.000000   0.000000   0.000000   0.000000
    34  O    0.000127  -0.001810   0.000043  -0.002228  -0.000004   0.000000
    35  H   -0.000098   0.000524   0.000184   0.000499  -0.000004  -0.000001
    36  H   -0.000181   0.005674  -0.000595   0.019447   0.000003  -0.000010
    37  O   -0.000021   0.000003   0.000003   0.000000   0.000003   0.000910
    38  H    0.001226  -0.000037  -0.000021  -0.000001  -0.000048   0.003648
    39  H    0.001010  -0.000014  -0.000039   0.000000  -0.000002   0.004000
               7          8          9         10         11         12
     1  C   -0.020951  -0.043018  -0.019414   0.003583  -0.106526  -0.099197
     2  C   -0.019232   0.007177  -0.037930  -0.026646   0.002095   0.003984
     3  C    0.234048   0.323335  -0.035480   0.000270   0.004156   0.005546
     4  C   -0.024905  -0.000219   0.323384   0.361547   0.001047  -0.000053
     5  H   -0.000239  -0.000130   0.005364  -0.006739   0.021699   0.000308
     6  C    0.004316  -0.012361  -0.000143  -0.000095   0.452705   0.389002
     7  C    4.987220  -0.035267   0.327571   0.003555  -0.000069   0.000400
     8  H   -0.035267   0.639537   0.003258   0.000020   0.000113   0.007180
     9  C    0.327571   0.003258   4.905138  -0.042288  -0.000008  -0.000008
    10  H    0.003555   0.000020  -0.042288   0.599936   0.000001   0.000000
    11  O   -0.000069   0.000113  -0.000008   0.000001   8.295202  -0.086827
    12  O    0.000400   0.007180  -0.000008   0.000000  -0.086827   8.350874
    13  H    0.340548  -0.000161  -0.042069  -0.000172   0.000003   0.000004
    14  O   -0.036574  -0.000057   0.183016   0.002185   0.000000   0.000000
    15  H   -0.060326  -0.000068   0.369127   0.000205   0.000000  -0.000001
    16  H   -0.004152  -0.000002  -0.025913  -0.000153   0.000000   0.000000
    17  C   -0.003412  -0.002753  -0.001821   0.000001   0.000000  -0.000002
    18  C   -0.028289  -0.000137  -0.005436  -0.000002   0.000000   0.000001
    19  H   -0.000121   0.000038   0.000019   0.000000   0.000000   0.000000
    20  H    0.000115   0.003090   0.000196   0.000000   0.000000  -0.000001
    21  C   -0.002520   0.000020   0.001915   0.000001   0.000000   0.000000
    22  O    0.211809   0.000755  -0.038247  -0.000057   0.000000   0.000000
    23  O   -0.001075   0.000001   0.007213   0.000003   0.000000   0.000000
    24  O    0.000001   0.000000  -0.000036   0.000000   0.000000   0.000000
    25  O    0.000161   0.026907   0.000000   0.000000  -0.000007  -0.026411
    26  H    0.000024   0.004065   0.000000   0.000000   0.000002   0.003089
    27  H    0.000066  -0.002370  -0.000002   0.000000   0.000386   0.067505
    28  O    0.000000   0.000000   0.000000   0.000000   0.000000   0.000000
    29  H    0.000006   0.000000  -0.000020   0.000000   0.000000   0.000000
    30  H    0.000000   0.000000   0.000000   0.000000   0.000000   0.000000
    31  O    0.000000   0.000000   0.000000   0.000000   0.000000   0.000000
    32  H    0.000000   0.000000  -0.000001   0.000000   0.000000   0.000000
    33  H    0.000000   0.000000  -0.000004   0.000000   0.000000   0.000000
    34  O   -0.007186  -0.000002   0.003035   0.000144   0.000000   0.000000
    35  H    0.000099   0.000000  -0.009819   0.000080   0.000000   0.000000
    36  H    0.000092  -0.000005  -0.002516  -0.000217   0.000000   0.000000
    37  O    0.000000   0.000002   0.000000   0.000000  -0.017104  -0.013828
    38  H    0.000000  -0.000004   0.000000   0.000000   0.053343  -0.000599
    39  H    0.000000  -0.000023   0.000000   0.000000   0.000268   0.044329
              13         14         15         16         17         18
     1  C   -0.003836   0.000292   0.001452  -0.000032  -0.000241   0.000049
     2  C    0.002428   0.002112  -0.001185  -0.000125   0.000028   0.000016
     3  C   -0.044172   0.004058   0.007399   0.000340   0.006858  -0.006672
     4  C    0.000288  -0.035374  -0.051710   0.004586  -0.000062  -0.000048
     5  H   -0.000018  -0.000050  -0.000145   0.000003   0.000000   0.000000
     6  C   -0.000210   0.000001  -0.000063   0.000000   0.000012  -0.000002
     7  C    0.340548  -0.036574  -0.060326  -0.004152  -0.003412  -0.028289
     8  H   -0.000161  -0.000057  -0.000068  -0.000002  -0.002753  -0.000137
     9  C   -0.042069   0.183016   0.369127  -0.025913  -0.001821  -0.005436
    10  H   -0.000172   0.002185   0.000205  -0.000153   0.000001  -0.000002
    11  O    0.000003   0.000000   0.000000   0.000000   0.000000   0.000000
    12  O    0.000004   0.000000  -0.000001   0.000000  -0.000002   0.000001
    13  H    0.644497  -0.003542   0.006983  -0.000151  -0.000082   0.003839
    14  O   -0.003542   8.275702  -0.036565   0.256001   0.000088   0.000468
    15  H    0.006983  -0.036565   0.654992  -0.002386   0.002079   0.012370
    16  H   -0.000151   0.256001  -0.002386   0.340341   0.000071  -0.001458
    17  C   -0.000082   0.000088   0.002079   0.000071   5.192704   0.559699
    18  C    0.003839   0.000468   0.012370  -0.001458   0.559699   4.822626
    19  H    0.000009   0.000001   0.000085  -0.000020   0.357633  -0.023624
    20  H   -0.000044   0.000000   0.000020  -0.000007   0.325292  -0.014763
    21  C   -0.000137   0.000855   0.000068  -0.004473  -0.063537   0.335643
    22  O   -0.034765   0.000473  -0.008413   0.004822  -0.067459   0.238654
    23  O   -0.000030  -0.033670   0.001353   0.075681   0.004609  -0.079628
    24  O    0.000001  -0.000014  -0.000184   0.000677   0.001811  -0.093327
    25  O   -0.000001   0.000000   0.000000   0.000000  -0.009903   0.000228
    26  H    0.000000   0.000000   0.000000   0.000000   0.000949  -0.000067
    27  H    0.000003   0.000000   0.000001   0.000000   0.000534  -0.000020
    28  O    0.000000   0.000000   0.000000   0.000013   0.000000  -0.000001
    29  H    0.000000   0.000010   0.000000   0.000212  -0.000010   0.000311
    30  H    0.000000   0.000000   0.000000  -0.000001  -0.000001   0.000011
    31  O    0.000000   0.000000   0.000000   0.000013   0.000005  -0.000024
    32  H    0.000000   0.000001  -0.000004  -0.000002  -0.000077   0.001502
    33  H    0.000000   0.000007   0.000007  -0.000015  -0.000015   0.000452
    34  O    0.019713  -0.019038  -0.000091   0.000153   0.000000  -0.000002
    35  H    0.001501   0.059361   0.001015  -0.000267   0.000000   0.000023
    36  H    0.002712   0.001375   0.000239   0.000039   0.000000   0.000004
    37  O    0.000000   0.000000   0.000000   0.000000   0.000000   0.000000
    38  H    0.000000   0.000000   0.000000   0.000000   0.000000   0.000000
    39  H    0.000000   0.000000   0.000000   0.000000   0.000000   0.000000
              19         20         21         22         23         24
     1  C    0.000012   0.000051   0.000027   0.003055   0.000000   0.000000
     2  C    0.000000   0.000000   0.000001   0.000274   0.000000   0.000000
     3  C   -0.000022  -0.001293  -0.000290  -0.033923   0.000019   0.000001
     4  C    0.000001  -0.000019  -0.000015   0.002982   0.000139   0.000000
     5  H    0.000000   0.000000   0.000000   0.000001   0.000000   0.000000
     6  C    0.000000  -0.000023   0.000000  -0.000036   0.000000   0.000000
     7  C   -0.000121   0.000115  -0.002520   0.211809  -0.001075   0.000001
     8  H    0.000038   0.003090   0.000020   0.000755   0.000001   0.000000
     9  C    0.000019   0.000196   0.001915  -0.038247   0.007213  -0.000036
    10  H    0.000000   0.000000   0.000001  -0.000057   0.000003   0.000000
    11  O    0.000000   0.000000   0.000000   0.000000   0.000000   0.000000
    12  O    0.000000  -0.000001   0.000000   0.000000   0.000000   0.000000
    13  H    0.000009  -0.000044  -0.000137  -0.034765  -0.000030   0.000001
    14  O    0.000001   0.000000   0.000855   0.000473  -0.033670  -0.000014
    15  H    0.000085   0.000020   0.000068  -0.008413   0.001353  -0.000184
    16  H   -0.000020  -0.000007  -0.004473   0.004822   0.075681   0.000677
    17  C    0.357633   0.325292  -0.063537  -0.067459   0.004609   0.001811
    18  C   -0.023624  -0.014763   0.335643   0.238654  -0.079628  -0.093327
    19  H    0.575778  -0.033450  -0.006103   0.003626   0.000271   0.014834
    20  H   -0.033450   0.567029   0.003608  -0.004282  -0.000066   0.000289
    21  C   -0.006103   0.003608   4.423474  -0.048591   0.337955   0.442432
    22  O    0.003626  -0.004282  -0.048591   8.330903  -0.000178   0.001399
    23  O    0.000271  -0.000066   0.337955  -0.000178   8.373299  -0.083204
    24  O    0.014834   0.000289   0.442432   0.001399  -0.083204   8.289233
    25  O   -0.000043   0.033019   0.000000  -0.000004   0.000000   0.000000
    26  H    0.000006  -0.002580   0.000000   0.000005   0.000000   0.000000
    27  H    0.000000  -0.001408   0.000000  -0.000007   0.000000   0.000000
    28  O    0.000000   0.000000   0.001835   0.000000  -0.010777  -0.000307
    29  H   -0.000001   0.000000   0.001443  -0.000035   0.037697  -0.000246
    30  H    0.000000   0.000000   0.000360   0.000000   0.000755   0.000722
    31  O    0.000004   0.000000   0.001769   0.000000  -0.006570  -0.027288
    32  H   -0.000047   0.000000   0.001902  -0.000014  -0.001530   0.068750
    33  H   -0.000003   0.000000   0.003148  -0.000001   0.023201   0.000877
    34  O    0.000000   0.000000   0.000000   0.000051  -0.000001   0.000000
    35  H    0.000000   0.000000  -0.000015  -0.000115   0.000049   0.000000
    36  H    0.000000   0.000000   0.000000  -0.000008   0.000000   0.000000
    37  O    0.000000   0.000000   0.000000   0.000000   0.000000   0.000000
    38  H    0.000000   0.000000   0.000000   0.000000   0.000000   0.000000
    39  H    0.000000   0.000000   0.000000   0.000000   0.000000   0.000000
              25         26         27         28         29         30
     1  C   -0.000571  -0.000054  -0.001040   0.000000   0.000000   0.000000
     2  C    0.000002   0.000000  -0.000097   0.000000   0.000000   0.000000
     3  C   -0.010909  -0.000830   0.002219   0.000000   0.000000   0.000000
     4  C    0.000000   0.000000   0.000001   0.000000   0.000000   0.000000
     5  H    0.000000   0.000000  -0.000004   0.000000   0.000000   0.000000
     6  C   -0.000071   0.000077  -0.000042   0.000000   0.000000   0.000000
     7  C    0.000161   0.000024   0.000066   0.000000   0.000006   0.000000
     8  H    0.026907   0.004065  -0.002370   0.000000   0.000000   0.000000
     9  C    0.000000   0.000000  -0.000002   0.000000  -0.000020   0.000000
    10  H    0.000000   0.000000   0.000000   0.000000   0.000000   0.000000
    11  O   -0.000007   0.000002   0.000386   0.000000   0.000000   0.000000
    12  O   -0.026411   0.003089   0.067505   0.000000   0.000000   0.000000
    13  H   -0.000001   0.000000   0.000003   0.000000   0.000000   0.000000
    14  O    0.000000   0.000000   0.000000   0.000000   0.000010   0.000000
    15  H    0.000000   0.000000   0.000001   0.000000   0.000000   0.000000
    16  H    0.000000   0.000000   0.000000   0.000013   0.000212  -0.000001
    17  C   -0.009903   0.000949   0.000534   0.000000  -0.000010  -0.000001
    18  C    0.000228  -0.000067  -0.000020  -0.000001   0.000311   0.000011
    19  H   -0.000043   0.000006   0.000000   0.000000  -0.000001   0.000000
    20  H    0.033019  -0.002580  -0.001408   0.000000   0.000000   0.000000
    21  C    0.000000   0.000000   0.000000   0.001835   0.001443   0.000360
    22  O   -0.000004   0.000005  -0.000007   0.000000  -0.000035   0.000000
    23  O    0.000000   0.000000   0.000000  -0.010777   0.037697   0.000755
    24  O    0.000000   0.000000   0.000000  -0.000307  -0.000246   0.000722
    25  O    8.117676   0.290970   0.263127   0.000000   0.000000   0.000000
    26  H    0.290970   0.428936  -0.033862   0.000000   0.000000   0.000000
    27  H    0.263127  -0.033862   0.358134   0.000000   0.000000   0.000000
    28  O    0.000000   0.000000   0.000000   8.186354   0.286930   0.269072
    29  H    0.000000   0.000000   0.000000   0.286930   0.398111  -0.039370
    30  H    0.000000   0.000000   0.000000   0.269072  -0.039370   0.420959
    31  O    0.000000   0.000000   0.000000  -0.017417   0.001459   0.061939
    32  H    0.000000   0.000000   0.000000   0.001454   0.000713  -0.001690
    33  H    0.000000   0.000000   0.000000   0.005272   0.001105  -0.006254
    34  O    0.000000   0.000000   0.000000   0.000000   0.000000   0.000000
    35  H    0.000000   0.000000   0.000000   0.000000  -0.000001   0.000000
    36  H    0.000000   0.000000   0.000000   0.000000   0.000000   0.000000
    37  O    0.000000   0.000000   0.000016   0.000000   0.000000   0.000000
    38  H    0.000000   0.000000   0.000007   0.000000   0.000000   0.000000
    39  H    0.000027  -0.000008  -0.000035   0.000000   0.000000   0.000000
              31         32         33         34         35         36
     1  C    0.000000   0.000000   0.000000   0.000127  -0.000098  -0.000181
     2  C    0.000000   0.000000   0.000000  -0.001810   0.000524   0.005674
     3  C    0.000000   0.000000   0.000000   0.000043   0.000184  -0.000595
     4  C    0.000000   0.000000   0.000000  -0.002228   0.000499   0.019447
     5  H    0.000000   0.000000   0.000000  -0.000004  -0.000004   0.000003
     6  C    0.000000   0.000000   0.000000   0.000000  -0.000001  -0.000010
     7  C    0.000000   0.000000   0.000000  -0.007186   0.000099   0.000092
     8  H    0.000000   0.000000   0.000000  -0.000002   0.000000  -0.000005
     9  C    0.000000  -0.000001  -0.000004   0.003035  -0.009819  -0.002516
    10  H    0.000000   0.000000   0.000000   0.000144   0.000080  -0.000217
    11  O    0.000000   0.000000   0.000000   0.000000   0.000000   0.000000
    12  O    0.000000   0.000000   0.000000   0.000000   0.000000   0.000000
    13  H    0.000000   0.000000   0.000000   0.019713   0.001501   0.002712
    14  O    0.000000   0.000001   0.000007  -0.019038   0.059361   0.001375
    15  H    0.000000  -0.000004   0.000007  -0.000091   0.001015   0.000239
    16  H    0.000013  -0.000002  -0.000015   0.000153  -0.000267   0.000039
    17  C    0.000005  -0.000077  -0.000015   0.000000   0.000000   0.000000
    18  C   -0.000024   0.001502   0.000452  -0.000002   0.000023   0.000004
    19  H    0.000004  -0.000047  -0.000003   0.000000   0.000000   0.000000
    20  H    0.000000   0.000000   0.000000   0.000000   0.000000   0.000000
    21  C    0.001769   0.001902   0.003148   0.000000  -0.000015   0.000000
    22  O    0.000000  -0.000014  -0.000001   0.000051  -0.000115  -0.000008
    23  O   -0.006570  -0.001530   0.023201  -0.000001   0.000049   0.000000
    24  O   -0.027288   0.068750   0.000877   0.000000   0.000000   0.000000
    25  O    0.000000   0.000000   0.000000   0.000000   0.000000   0.000000
    26  H    0.000000   0.000000   0.000000   0.000000   0.000000   0.000000
    27  H    0.000000   0.000000   0.000000   0.000000   0.000000   0.000000
    28  O   -0.017417   0.001454   0.005272   0.000000   0.000000   0.000000
    29  H    0.001459   0.000713   0.001105   0.000000  -0.000001   0.000000
    30  H    0.061939  -0.001690  -0.006254   0.000000   0.000000   0.000000
    31  O    8.131145   0.261729   0.279859   0.000000   0.000000   0.000000
    32  H    0.261729   0.376615  -0.036447   0.000000   0.000000   0.000000
    33  H    0.279859  -0.036447   0.424198   0.000000   0.000000   0.000000
    34  O    0.000000   0.000000   0.000000   8.136803   0.276768   0.288235
    35  H    0.000000   0.000000   0.000000   0.276768   0.379569  -0.037196
    36  H    0.000000   0.000000   0.000000   0.288235  -0.037196   0.417398
    37  O    0.000000   0.000000   0.000000   0.000000   0.000000   0.000000
    38  H    0.000000   0.000000   0.000000   0.000000   0.000000   0.000000
    39  H    0.000000   0.000000   0.000000   0.000000   0.000000   0.000000
              37         38         39
     1  C   -0.000021   0.001226   0.001010
     2  C    0.000003  -0.000037  -0.000014
     3  C    0.000003  -0.000021  -0.000039
     4  C    0.000000  -0.000001   0.000000
     5  H    0.000003  -0.000048  -0.000002
     6  C    0.000910   0.003648   0.004000
     7  C    0.000000   0.000000   0.000000
     8  H    0.000002  -0.000004  -0.000023
     9  C    0.000000   0.000000   0.000000
    10  H    0.000000   0.000000   0.000000
    11  O   -0.017104   0.053343   0.000268
    12  O   -0.013828  -0.000599   0.044329
    13  H    0.000000   0.000000   0.000000
    14  O    0.000000   0.000000   0.000000
    15  H    0.000000   0.000000   0.000000
    16  H    0.000000   0.000000   0.000000
    17  C    0.000000   0.000000   0.000000
    18  C    0.000000   0.000000   0.000000
    19  H    0.000000   0.000000   0.000000
    20  H    0.000000   0.000000   0.000000
    21  C    0.000000   0.000000   0.000000
    22  O    0.000000   0.000000   0.000000
    23  O    0.000000   0.000000   0.000000
    24  O    0.000000   0.000000   0.000000
    25  O    0.000000   0.000000   0.000027
    26  H    0.000000   0.000000  -0.000008
    27  H    0.000016   0.000007  -0.000035
    28  O    0.000000   0.000000   0.000000
    29  H    0.000000   0.000000   0.000000
    30  H    0.000000   0.000000   0.000000
    31  O    0.000000   0.000000   0.000000
    32  H    0.000000   0.000000   0.000000
    33  H    0.000000   0.000000   0.000000
    34  O    0.000000   0.000000   0.000000
    35  H    0.000000   0.000000   0.000000
    36  H    0.000000   0.000000   0.000000
    37  O    8.200317   0.275844   0.280218
    38  H    0.275844   0.409022  -0.042094
    39  H    0.280218  -0.042094   0.414091
 Mulliken charges:
               1
     1  C    0.050785
     2  C   -0.089351
     3  C   -0.148240
     4  C   -0.150868
     5  H    0.097426
     6  C    0.542518
     7  C    0.134286
     8  H    0.081079
     9  C    0.131921
    10  H    0.104838
    11  O   -0.620481
    12  O   -0.645295
    13  H    0.106860
    14  O   -0.621120
    15  H    0.103744
    16  H    0.356204
    17  C   -0.302996
    18  C    0.277604
    19  H    0.111117
    20  H    0.125227
    21  C    0.569225
    22  O   -0.562676
    23  O   -0.645516
    24  O   -0.616424
    25  O   -0.684196
    26  H    0.309280
    27  H    0.346891
    28  O   -0.722428
    29  H    0.311687
    30  H    0.293497
    31  O   -0.686624
    32  H    0.327148
    33  H    0.304614
    34  O   -0.694710
    35  H    0.327842
    36  H    0.305509
    37  O   -0.726363
    38  H    0.299712
    39  H    0.298272
 Sum of Mulliken charges =  -2.00000
 Mulliken charges with hydrogens summed into heavy atoms:
               1
     1  C    0.050785
     2  C    0.008076
     3  C   -0.067161
     4  C   -0.046030
     6  C    0.542518
     7  C    0.241146
     9  C    0.235666
    11  O   -0.620481
    12  O   -0.645295
    14  O   -0.264916
    17  C   -0.066652
    18  C    0.277604
    21  C    0.569225
    22  O   -0.562676
    23  O   -0.645516
    24  O   -0.616424
    25  O   -0.028025
    28  O   -0.117244
    31  O   -0.054862
    34  O   -0.061360
    37  O   -0.128379
 Electronic spatial extent (au):  <R**2>=           9651.0407
 Charge=             -2.0000 electrons
 Dipole moment (field-independent basis, Debye):
    X=              0.5511    Y=              2.4657    Z=             -0.4721  Tot=              2.5703
 Quadrupole moment (field-independent basis, Debye-Ang):
   XX=           -361.9274   YY=           -170.3580   ZZ=           -137.6072
   XY=             -7.9603   XZ=            -10.9216   YZ=            -13.7058
 Traceless Quadrupole moment (field-independent basis, Debye-Ang):
   XX=           -138.6299   YY=             52.9395   ZZ=             85.6904
   XY=             -7.9603   XZ=            -10.9216   YZ=            -13.7058
 Octapole moment (field-independent basis, Debye-Ang**2):
  XXX=            194.4452  YYY=            -26.1044  ZZZ=              9.0689  XYY=              8.9702
  XXY=            129.4351  XXZ=             55.0860  XZZ=            -46.7220  YZZ=            -23.4415
  YYZ=            -35.6673  XYZ=            -17.7640
 Hexadecapole moment (field-independent basis, Debye-Ang**3):
 XXXX=         -17563.3106 YYYY=          -2906.9769 ZZZZ=           -647.1490 XXXY=           -315.1055
 XXXZ=           -374.6647 YYYX=           -100.9731 YYYZ=           -169.5460 ZZZX=            -16.3135
 ZZZY=            -61.3424 XXYY=          -2068.1987 XXZZ=          -1844.4127 YYZZ=           -533.0951
 XXYZ=           -128.8342 YYXZ=            -15.7414 ZZXY=             62.7978
 N-N= 1.809612443090D+03 E-N=-6.521363826822D+03  KE= 1.209191982859D+03
 No NMR shielding tensors so no spin-rotation constants.
 Leave Link  601 at Wed Feb  6 11:12:00 2019, MaxMem=    33554432 cpu:         6.7
 (Enter /global/apps/Gaussian/09.d01/l9999.exe)
 1\1\GINC-C46-2\SP\RB3LYP\6-31G(d,p)\C10H18O11(2-)\GVI022\06-Feb-2019\0
 \\#p rb3lyp/6-31g(d,p) scrf=(iefpcm,solvent=water) geom=connectivity e
 mpiricaldispersion=gd3\\Title Card Required\\-2,1\C,0,-2.357817,0.5476
 79,-0.190259\C,0,-1.99598,1.787899,-0.899894\C,0,-1.417375,-0.071072,0
 .547213\C,0,-0.712971,2.158511,-1.048902\H,0,-2.818052,2.35495,-1.3246
 78\C,0,-3.803904,0.058313,-0.262871\C,0,-0.045964,0.534874,0.721363\H,
 0,-1.651345,-0.972708,1.097329\C,0,0.413753,1.295779,-0.528341\H,0,-0.
 422208,3.037979,-1.619075\O,0,-4.629197,0.854345,-0.780964\O,0,-4.0642
 85,-1.09064,0.218137\H,0,-0.101064,1.281896,1.528763\O,0,1.557826,2.08
 9556,-0.254119\H,0,0.660866,0.549938,-1.307889\H,0,2.283451,1.429138,-
 0.056999\C,0,0.802396,-2.428389,-0.037401\C,0,1.472617,-1.331475,0.331
 141\H,0,1.317983,-3.137571,-0.67437\H,0,-0.220171,-2.635529,0.265463\C
 ,0,2.900682,-1.06216,-0.150581\O,0,0.952439,-0.383676,1.19682\O,0,3.33
 0353,0.138676,-0.054917\O,0,3.537807,-2.032671,-0.625839\O,0,-2.546669
 ,-3.240379,0.853861\H,0,-2.527545,-3.040865,1.797532\H,0,-3.067803,-2.
 473125,0.499375\O,0,6.031162,0.138134,1.092359\H,0,5.067007,0.239902,1
 .003384\H,0,6.221116,-0.281894,0.233909\O,0,5.688628,-0.698716,-1.6444
 22\H,0,5.029476,-1.370266,-1.333363\H,0,5.152907,0.089002,-1.457834\O,
 0,0.223267,3.86188,1.485889\H,0,0.890842,3.341252,0.993013\H,0,-0.5831
 14,3.614773,1.012204\O,0,-6.869105,-0.837601,-0.347842\H,0,-6.377463,-
 0.045338,-0.642036\H,0,-6.085307,-1.312562,-0.015249\\Version=EM64L-G0
 9RevD.01\State=1-A\HF=-1219.7199214\RMSD=5.083e-09\Dipole=0.2168336,0.
 9700797,-0.1857219\Quadrupole=-103.0679219,39.3592333,63.7086886,-5.91
 82984,-8.1199295,-10.1899076\PG=C01 [X(C10H18O11)]\\@


 We find comfort among those who agree with us -- growth among those who don't.
 -- Frank A. Clark
 Job cpu time:       0 days  0 hours  0 minutes 31.7 seconds.
 File lengths (MBytes):  RWF=    270 Int=      0 D2E=      0 Chk=      8 Scr=      1
 Normal termination of Gaussian 09 at Wed Feb  6 11:12:01 2019.
