 Entering Gaussian System, Link 0=g09
 Initial command:
 /global/apps/Gaussian/09.d01/l1.exe "/global/work/gvi022/1443070/Gau-55245.inp" -scrdir="/global/work/gvi022/1443070/"
 Entering Link 1 = /global/apps/Gaussian/09.d01/l1.exe PID=     55246.
  
 Copyright (c) 1988,1990,1992,1993,1995,1998,2003,2009,2013,
            Gaussian, Inc.  All Rights Reserved.
  
 This is part of the Gaussian(R) 09 program.  It is based on
 the Gaussian(R) 03 system (copyright 2003, Gaussian, Inc.),
 the Gaussian(R) 98 system (copyright 1998, Gaussian, Inc.),
 the Gaussian(R) 94 system (copyright 1995, Gaussian, Inc.),
 the Gaussian 92(TM) system (copyright 1992, Gaussian, Inc.),
 the Gaussian 90(TM) system (copyright 1990, Gaussian, Inc.),
 the Gaussian 88(TM) system (copyright 1988, Gaussian, Inc.),
 the Gaussian 86(TM) system (copyright 1986, Carnegie Mellon
 University), and the Gaussian 82(TM) system (copyright 1983,
 Carnegie Mellon University). Gaussian is a federally registered
 trademark of Gaussian, Inc.
  
 This software contains proprietary and confidential information,
 including trade secrets, belonging to Gaussian, Inc.
  
 This software is provided under written license and may be
 used, copied, transmitted, or stored only in accord with that
 written license.
  
 The following legend is applicable only to US Government
 contracts under FAR:
  
                    RESTRICTED RIGHTS LEGEND
  
 Use, reproduction and disclosure by the US Government is
 subject to restrictions as set forth in subparagraphs (a)
 and (c) of the Commercial Computer Software - Restricted
 Rights clause in FAR 52.227-19.
  
 Gaussian, Inc.
 340 Quinnipiac St., Bldg. 40, Wallingford CT 06492
  
  
 ---------------------------------------------------------------
 Warning -- This program may not be used in any manner that
 competes with the business of Gaussian, Inc. or will provide
 assistance to any competitor of Gaussian, Inc.  The licensee
 of this program is prohibited from giving any competitor of
 Gaussian, Inc. access to this program.  By using this program,
 the user acknowledges that Gaussian, Inc. is engaged in the
 business of creating and licensing software in the field of
 computational chemistry and represents and warrants to the
 licensee that it is not a competitor of Gaussian, Inc. and that
 it will not use this program in any manner prohibited above.
 ---------------------------------------------------------------
  

 Cite this work as:
 Gaussian 09, Revision D.01,
 M. J. Frisch, G. W. Trucks, H. B. Schlegel, G. E. Scuseria, 
 M. A. Robb, J. R. Cheeseman, G. Scalmani, V. Barone, B. Mennucci, 
 G. A. Petersson, H. Nakatsuji, M. Caricato, X. Li, H. P. Hratchian, 
 A. F. Izmaylov, J. Bloino, G. Zheng, J. L. Sonnenberg, M. Hada, 
 M. Ehara, K. Toyota, R. Fukuda, J. Hasegawa, M. Ishida, T. Nakajima, 
 Y. Honda, O. Kitao, H. Nakai, T. Vreven, J. A. Montgomery, Jr., 
 J. E. Peralta, F. Ogliaro, M. Bearpark, J. J. Heyd, E. Brothers, 
 K. N. Kudin, V. N. Staroverov, T. Keith, R. Kobayashi, J. Normand, 
 K. Raghavachari, A. Rendell, J. C. Burant, S. S. Iyengar, J. Tomasi, 
 M. Cossi, N. Rega, J. M. Millam, M. Klene, J. E. Knox, J. B. Cross, 
 V. Bakken, C. Adamo, J. Jaramillo, R. Gomperts, R. E. Stratmann, 
 O. Yazyev, A. J. Austin, R. Cammi, C. Pomelli, J. W. Ochterski, 
 R. L. Martin, K. Morokuma, V. G. Zakrzewski, G. A. Voth, 
 P. Salvador, J. J. Dannenberg, S. Dapprich, A. D. Daniels, 
 O. Farkas, J. B. Foresman, J. V. Ortiz, J. Cioslowski, 
 and D. J. Fox, Gaussian, Inc., Wallingford CT, 2013.
 
 ******************************************
 Gaussian 09:  EM64L-G09RevD.01 24-Apr-2013
                 6-Feb-2019 
 ******************************************
 %LindaWorkers=cib52-2,cib52-4,cib52-5,cib52-8
 %NProcShared=20
 Will use up to   20 processors via shared memory.
 %chk=ChorA_frwd.chk
 SetLPE:  input flags=""
 SetLPE:    new flags=" -nodelist 'cib52-2.ibnet cib52-4.ibnet cib52-5.ibnet cib52-8.ibnet'"
 Will use up to    4 processors via Linda.
 ----------------------------------------------------------------------
 #p irc=(maxpoints=100,forward,calcfc) 6-31g(d,p) geom=connectivity b3l
 yp
 ----------------------------------------------------------------------
 1/10=4,14=-1,18=10,22=1,26=3,38=1,42=100,44=3,57=2/1,23;
 2/12=2,17=6,18=5,29=1,40=1/2;
 3/5=1,6=6,7=101,11=2,16=1,25=1,30=1,71=2,74=-5,140=1/1,2,3;
 4//1;
 5/5=2,38=5/2;
 8/6=4,10=90,11=11/1;
 11/6=1,8=1,9=11,15=111,16=1/1,2,10;
 10/6=1,13=1/2;
 6/7=2,8=2,9=2,10=2,28=1/1;
 7/10=1,18=20,25=1/1,2,3,16;
 1/10=4,14=-1,18=10,22=1,26=3,42=100,44=3/23(2);
 2/29=1/2;
 99/5=20/99;
 2/29=1/2;
 3/5=1,6=6,7=101,11=2,16=1,25=1,30=1,71=2,74=-5,140=1/1,2,3;
 4/5=5,16=3,69=1/1;
 5/5=2,38=5/2;
 8/6=4,10=90,11=11/1;
 11/6=1,8=1,9=11,15=111,16=1/1,2,10;
 10/6=1,13=1/2;
 7/10=1,18=20,25=1/1,2,3,16;
 1/14=-1,18=10,22=1,26=3,42=100,44=3/23(-8);
 2/29=1/2;
 6/7=2,8=2,9=2,10=2,19=2,28=1/1;
 99/5=20,9=1/99;
 Leave Link    1 at Wed Feb  6 07:55:25 2019, MaxMem=           0 cpu:         1.5
 (Enter /global/apps/Gaussian/09.d01/l101.exe)
 -------------------
 Title Card Required
 -------------------
 Symbolic Z-matrix:
 Charge = -2 Multiplicity = 1
 C                    -1.52023   0.12686  -0.46301 
 C                    -0.64066   0.34421  -1.61169 
 C                    -1.40379   0.98643   0.6277 
 C                     0.37742   1.21984  -1.56866 
 H                    -0.87394  -0.23013  -2.50164 
 C                    -2.77279  -0.74419  -0.60325 
 C                    -0.20834   1.66386   0.83012 
 H                    -2.13177   0.92638   1.42593 
 C                     0.75315   1.93357  -0.30803 
 H                     1.01994   1.39131  -2.42733 
 O                    -3.08537  -1.0817   -1.77222 
 O                    -3.38223  -1.02347   0.47572 
 H                    -0.0921    2.3057    1.69803 
 O                     0.80626   3.37466  -0.59544 
 H                     1.75491   1.59741  -0.00299 
 H                     1.33878   3.76576   0.11063 
 C                    -0.11866  -1.77564   0.61255 
 C                     0.90953  -0.90064   0.92218 
 H                     0.05564  -2.54232  -0.13185 
 H                    -1.01562  -1.83082   1.20985 
 C                     2.2512   -1.01156   0.14468 
 O                     0.75241   0.06276   1.7727 
 O                     3.03336  -0.01244   0.19212 
 O                     2.45572  -2.10395  -0.44824 
 O                    -2.22311  -0.80301   3.10363 
 H                    -1.32075  -0.5463    2.85851 
 H                    -2.66683  -0.91002   2.23404 
 O                     5.72829  -0.75248   0.9261 
 H                     4.81515  -0.41068   0.96772 
 H                     5.67768  -1.19166   0.05743 
 O                     4.75936  -1.37351  -1.71937 
 H                     3.99186  -1.88052  -1.34966 
 H                     4.46558  -0.5017   -1.40339 
 O                    -1.8352    4.29764  -0.02906 
 H                    -0.94256   4.08744  -0.36253 
 H                    -2.21127   3.41215   0.06951 
 O                    -5.48343  -2.38119  -0.93714 
 H                    -4.80173  -2.06766  -1.56267 
 H                    -5.03246  -2.05732  -0.13541 
 
 NAtoms=     39 NQM=       39 NQMF=       0 NMMI=      0 NMMIF=      0
                NMic=       0 NMicF=      0.
                    Isotopes and Nuclear Properties:
 (Nuclear quadrupole moments (NQMom) in fm**2, nuclear magnetic moments (NMagM)
  in nuclear magnetons)

  Atom         1           2           3           4           5           6           7           8           9          10
 IAtWgt=          12          12          12          12           1          12          12           1          12           1
 AtmWgt=  12.0000000  12.0000000  12.0000000  12.0000000   1.0078250  12.0000000  12.0000000   1.0078250  12.0000000   1.0078250
 NucSpn=           0           0           0           0           1           0           0           1           0           1
 AtZEff=   0.0000000   0.0000000   0.0000000   0.0000000   0.0000000   0.0000000   0.0000000   0.0000000   0.0000000   0.0000000
 NQMom=    0.0000000   0.0000000   0.0000000   0.0000000   0.0000000   0.0000000   0.0000000   0.0000000   0.0000000   0.0000000
 NMagM=    0.0000000   0.0000000   0.0000000   0.0000000   2.7928460   0.0000000   0.0000000   2.7928460   0.0000000   2.7928460
 AtZNuc=   6.0000000   6.0000000   6.0000000   6.0000000   1.0000000   6.0000000   6.0000000   1.0000000   6.0000000   1.0000000

  Atom        11          12          13          14          15          16          17          18          19          20
 IAtWgt=          16          16           1          16           1           1          12          12           1           1
 AtmWgt=  15.9949146  15.9949146   1.0078250  15.9949146   1.0078250   1.0078250  12.0000000  12.0000000   1.0078250   1.0078250
 NucSpn=           0           0           1           0           1           1           0           0           1           1
 AtZEff=   0.0000000   0.0000000   0.0000000   0.0000000   0.0000000   0.0000000   0.0000000   0.0000000   0.0000000   0.0000000
 NQMom=    0.0000000   0.0000000   0.0000000   0.0000000   0.0000000   0.0000000   0.0000000   0.0000000   0.0000000   0.0000000
 NMagM=    0.0000000   0.0000000   2.7928460   0.0000000   2.7928460   2.7928460   0.0000000   0.0000000   2.7928460   2.7928460
 AtZNuc=   8.0000000   8.0000000   1.0000000   8.0000000   1.0000000   1.0000000   6.0000000   6.0000000   1.0000000   1.0000000

  Atom        21          22          23          24          25          26          27          28          29          30
 IAtWgt=          12          16          16          16          16           1           1          16           1           1
 AtmWgt=  12.0000000  15.9949146  15.9949146  15.9949146  15.9949146   1.0078250   1.0078250  15.9949146   1.0078250   1.0078250
 NucSpn=           0           0           0           0           0           1           1           0           1           1
 AtZEff=   0.0000000   0.0000000   0.0000000   0.0000000   0.0000000   0.0000000   0.0000000   0.0000000   0.0000000   0.0000000
 NQMom=    0.0000000   0.0000000   0.0000000   0.0000000   0.0000000   0.0000000   0.0000000   0.0000000   0.0000000   0.0000000
 NMagM=    0.0000000   0.0000000   0.0000000   0.0000000   0.0000000   2.7928460   2.7928460   0.0000000   2.7928460   2.7928460
 AtZNuc=   6.0000000   8.0000000   8.0000000   8.0000000   8.0000000   1.0000000   1.0000000   8.0000000   1.0000000   1.0000000

  Atom        31          32          33          34          35          36          37          38          39
 IAtWgt=          16           1           1          16           1           1          16           1           1
 AtmWgt=  15.9949146   1.0078250   1.0078250  15.9949146   1.0078250   1.0078250  15.9949146   1.0078250   1.0078250
 NucSpn=           0           1           1           0           1           1           0           1           1
 AtZEff=   0.0000000   0.0000000   0.0000000   0.0000000   0.0000000   0.0000000   0.0000000   0.0000000   0.0000000
 NQMom=    0.0000000   0.0000000   0.0000000   0.0000000   0.0000000   0.0000000   0.0000000   0.0000000   0.0000000
 NMagM=    0.0000000   2.7928460   2.7928460   0.0000000   2.7928460   2.7928460   0.0000000   2.7928460   2.7928460
 AtZNuc=   8.0000000   1.0000000   1.0000000   8.0000000   1.0000000   1.0000000   8.0000000   1.0000000   1.0000000
 Leave Link  101 at Wed Feb  6 07:55:26 2019, MaxMem=    33554432 cpu:         1.9
 (Enter /global/apps/Gaussian/09.d01/l123.exe)
 IRC-IRC-IRC-IRC-IRC-IRC-IRC-IRC-IRC-IRC-IRC-IRC-IRC-IRC-IRC-IRC-IRC-IRC
 ------------------------------------------------------------------------
 INPUT DATA FOR L123
 ------------------------------------------------------------------------
 GENERAL PARAMETERS:
 Rxn path following direction = Forward
 Maximum points per path      = 100
 Step size                    =   0.100 bohr
 Integration scheme           = HPC                                 
    Redo corrector integration= Yes                                 
    DWI Weight Power          =  2
    DWI will use Hessian update vectors when possible.
    Max correction cycles     =  20
 Initial Hessian              = CalcFC
 Hessian evaluation           = All updating
 Hessian updating method      = Bofill                              
 ------------------------------------------------------------------------
 IRC-IRC-IRC-IRC-IRC-IRC-IRC-IRC-IRC-IRC-IRC-IRC-IRC-IRC-IRC-IRC-IRC-IRC
 Leave Link  123 at Wed Feb  6 07:55:26 2019, MaxMem=    33554432 cpu:         0.1
 (Enter /global/apps/Gaussian/09.d01/l202.exe)
                          Input orientation:                          
 ---------------------------------------------------------------------
 Center     Atomic      Atomic             Coordinates (Angstroms)
 Number     Number       Type             X           Y           Z
 ---------------------------------------------------------------------
      1          6           0       -1.520228    0.126858   -0.463007
      2          6           0       -0.640656    0.344212   -1.611685
      3          6           0       -1.403791    0.986427    0.627699
      4          6           0        0.377422    1.219842   -1.568663
      5          1           0       -0.873935   -0.230128   -2.501640
      6          6           0       -2.772787   -0.744189   -0.603246
      7          6           0       -0.208342    1.663855    0.830122
      8          1           0       -2.131771    0.926375    1.425930
      9          6           0        0.753154    1.933570   -0.308025
     10          1           0        1.019939    1.391314   -2.427327
     11          8           0       -3.085375   -1.081702   -1.772223
     12          8           0       -3.382225   -1.023472    0.475721
     13          1           0       -0.092096    2.305696    1.698032
     14          8           0        0.806257    3.374662   -0.595444
     15          1           0        1.754914    1.597413   -0.002994
     16          1           0        1.338784    3.765761    0.110625
     17          6           0       -0.118664   -1.775643    0.612545
     18          6           0        0.909528   -0.900635    0.922181
     19          1           0        0.055638   -2.542318   -0.131849
     20          1           0       -1.015616   -1.830824    1.209850
     21          6           0        2.251202   -1.011558    0.144676
     22          8           0        0.752408    0.062763    1.772695
     23          8           0        3.033365   -0.012439    0.192116
     24          8           0        2.455722   -2.103946   -0.448240
     25          8           0       -2.223109   -0.803006    3.103632
     26          1           0       -1.320751   -0.546298    2.858507
     27          1           0       -2.666826   -0.910019    2.234036
     28          8           0        5.728288   -0.752478    0.926100
     29          1           0        4.815148   -0.410675    0.967722
     30          1           0        5.677680   -1.191657    0.057428
     31          8           0        4.759356   -1.373514   -1.719368
     32          1           0        3.991859   -1.880516   -1.349664
     33          1           0        4.465578   -0.501696   -1.403386
     34          8           0       -1.835198    4.297637   -0.029063
     35          1           0       -0.942558    4.087440   -0.362533
     36          1           0       -2.211265    3.412153    0.069506
     37          8           0       -5.483434   -2.381190   -0.937142
     38          1           0       -4.801727   -2.067657   -1.562673
     39          1           0       -5.032462   -2.057321   -0.135405
 ---------------------------------------------------------------------
                    Distance matrix (angstroms):
                    1          2          3          4          5
     1  C    0.000000
     2  C    1.462994   0.000000
     3  C    1.393577   2.451460   0.000000
     4  C    2.453195   1.343526   2.837465   0.000000
     5  H    2.168215   1.084576   3.399046   2.130435   0.000000
     6  C    1.532088   2.597604   2.526738   3.835787   2.733825
     7  C    2.399081   2.809052   1.388878   2.508872   3.889836
     8  H    2.140396   3.433576   1.082005   3.917877   4.283160
     9  C    2.908005   2.483605   2.534772   1.496593   3.484387
    10  H    3.451065   2.125858   3.920661   1.086064   2.494264
    11  O    2.371571   2.834723   3.586713   4.162872   2.479454
    12  O    2.381492   3.707293   2.824357   4.831864   3.973109
    13  H    3.384817   3.886202   2.146305   3.474309   4.967788
    14  O    3.997287   3.508551   3.476213   2.402978   4.410345
    15  H    3.619489   3.145974   3.278490   2.119284   4.061279
    16  H    4.663113   4.311790   3.938754   3.197801   5.261861
    17  C    2.596287   3.116642   3.046442   3.738543   3.557696
    18  C    2.979631   3.220744   2.999861   3.314191   3.918274
    19  H    3.117294   3.317649   3.893442   4.040028   3.438930
    20  H    2.624043   3.582239   2.902840   4.355141   4.044436
    21  C    3.986095   3.644964   4.193355   3.380196   4.168945
    22  O    3.188628   3.670677   2.610242   3.555857   4.582654
    23  O    4.602586   4.108446   4.569006   3.416561   4.750863
    24  O    4.559044   4.115172   5.060029   4.077039   4.337541
    25  O    3.752280   5.104359   3.162846   5.717081   5.793750
    26  H    3.394906   4.608487   2.707886   5.059928   5.388022
    27  H    3.108672   4.524161   2.787846   5.316415   5.109143
    28  O    7.432620   6.943092   7.347066   6.224601   7.457319
    29  H    6.517125   6.081858   6.383002   5.365188   6.665938
    30  H    7.336158   6.713136   7.430780   6.045844   7.099086
    31  O    6.577441   5.667655   7.004458   5.094070   5.801142
    32  H    5.932859   5.145704   6.422022   4.767005   5.265623
    33  H    6.091738   5.180017   6.386651   4.438922   5.458050
    34  O    4.205105   4.422804   3.403169   4.091317   5.247697
    35  H    4.003749   3.957686   3.287792   3.379381   4.818909
    36  H    3.399157   3.834772   2.616819   3.767111   4.654616
    37  O    4.714033   5.597796   5.516617   6.907668   5.321861
    38  H    4.097975   4.809784   5.066668   6.134433   4.436859
    39  H    4.148945   5.218690   4.797289   6.485435   5.121626
                    6          7          8          9         10
     6  C    0.000000
     7  C    3.798631   0.000000
     8  H    2.705410   2.144398   0.000000
     9  C    4.437320   1.514133   3.513379   0.000000
    10  H    4.719366   3.491980   4.999703   2.203782   0.000000
    11  O    1.256238   4.752642   3.894858   5.096081   4.837207
    12  O    1.270269   4.173830   2.503684   5.143901   5.799821
    13  H    4.667310   1.085698   2.477265   2.208436   4.369360
    14  O    5.456606   2.447143   4.325745   1.470434   2.708344
    15  H    5.132590   2.133746   4.195049   1.099804   2.541664
    16  H    6.144451   2.707265   4.672996   1.968541   3.490109
    17  C    3.096193   3.447539   3.466280   3.919921   4.535069
    18  C    3.988840   2.799056   3.583466   3.093635   4.060102
    19  H    3.384593   4.322842   4.386715   4.533337   4.655379
    20  H    2.748771   3.606753   2.982388   4.427545   5.268274
    21  C    5.086388   3.698247   4.960610   3.335096   3.728941
    22  O    4.327039   2.091645   3.030604   2.798091   4.413253
    23  O    5.905883   3.704818   5.392801   3.039154   3.589692
    24  O    5.404653   4.788295   5.808653   4.384054   4.265572
    25  O    3.747873   3.913251   2.411179   5.290217   6.776718
    26  H    3.759163   3.199465   2.208800   4.525235   6.096984
    27  H    2.844099   3.826218   2.076454   5.122923   6.373121
    28  O    8.637548   6.410262   8.052882   5.787044   6.165214
    29  H    7.756025   5.436732   7.089241   4.860330   5.401586
    30  H    8.488057   6.587584   8.206484   5.843933   5.877099
    31  O    7.640351   6.356377   7.916440   5.383154   4.704117
    32  H    6.899914   5.912336   7.285699   5.110917   4.549565
    33  H    7.286491   5.614597   7.319114   4.573011   4.062557
    34  O    5.160307   3.212735   3.683798   3.516561   4.727599
    35  H    5.172264   2.799154   3.821670   2.741818   3.922227
    36  H    4.247715   2.765282   2.832896   3.334144   4.556166
    37  O    3.184159   6.878387   5.268562   7.609729   7.664613
    38  H    2.605507   6.383481   5.002463   6.959933   6.826705
    39  H    2.655056   6.168592   4.444572   7.030673   7.333318
                   11         12         13         14         15
    11  O    0.000000
    12  O    2.268207   0.000000
    13  H    5.698847   4.837598   0.000000
    14  O    6.032312   6.167200   2.685099   0.000000
    15  H    5.808289   5.786917   2.608946   2.099896   0.000000
    16  H    6.827606   6.734833   2.588256   0.966994   2.210838
    17  C    3.869114   3.351912   4.223306   5.370322   3.907261
    18  C    4.822017   4.316661   3.447572   4.537843   2.794793
    19  H    3.832778   3.807222   5.183969   5.982391   4.476775
    20  H    3.706460   2.606070   4.266381   5.803050   4.571612
    21  C    5.670844   5.643158   4.348348   4.677026   2.659857
    22  O    5.348348   4.467352   2.397814   4.071812   2.552105
    23  O    6.514670   6.500955   4.172534   4.129493   2.064977
    24  O    5.788063   6.008557   5.526554   5.723421   3.793341
    25  O    4.959348   2.880637   4.022556   6.349262   5.589079
    26  H    4.984397   3.186697   3.315142   5.641619   4.716291
    27  H    4.031720   1.901667   4.154198   6.198932   5.553675
    28  O    9.223339   9.125663   6.620059   6.601119   4.708811
    29  H    8.389031   8.234957   5.656241   5.730922   3.786785
    30  H    8.952700   9.071115   6.943585   6.708821   4.813591
    31  O    7.850335   8.439567   6.982249   6.279759   4.560594
    32  H    7.134697   7.644846   6.594809   6.191430   4.348958
    33  H    7.582172   8.086489   6.186488   5.391619   3.703384
    34  O    5.791273   5.564378   3.160552   2.854813   4.492304
    35  H    5.770522   5.725039   2.853739   1.902802   3.688612
    36  H    4.934650   4.605532   2.892615   3.090146   4.362237
    37  O    2.852493   2.873092   7.614300   8.532690   8.312376
    38  H    1.990448   2.694505   7.206874   7.874253   7.671693
    39  H    2.724363   2.040980   6.841391   7.988036   7.709934
                   16         17         18         19         20
    16  H    0.000000
    17  C    5.751803   0.000000
    18  C    4.755853   1.385169   0.000000
    19  H    6.441826   1.082725   2.129608   0.000000
    20  H    6.170353   1.079046   2.157356   1.858485   0.000000
    21  C    4.863789   2.533573   1.554640   2.690761   3.532406
    22  O    4.101037   2.341890   1.294680   3.301397   2.651108
    23  O    4.141623   3.636060   2.415072   3.920727   4.553741
    24  O    6.001112   2.803660   2.390968   2.460219   3.856688
    25  O    6.520644   3.402973   3.818596   4.322757   2.469992
    26  H    5.763492   2.828542   2.974737   3.849776   2.112152
    27  H    6.512811   3.141921   3.809378   3.958993   2.150194
    28  O    6.351947   5.944075   4.821039   6.041667   6.835465
    29  H    5.501122   5.131451   3.936496   5.329718   6.006102
    30  H    6.588235   5.852076   4.854664   5.785107   6.821790
    31  O    6.439048   5.421679   4.692821   5.100126   6.491514
    32  H    6.407160   4.556058   3.952494   4.173115   5.623912
    33  H    5.502750   5.167417   4.267658   5.022800   6.216033
    34  O    3.221268   6.343728   5.954865   7.097240   6.305922
    35  H    2.351994   6.000443   5.473719   6.708450   6.124016
    36  H    3.567853   5.620240   5.391340   6.374568   5.497160
    37  O    9.242591   5.616847   6.820490   5.599623   4.987372
    38  H    8.633340   5.171840   6.336787   5.085917   4.698682
    39  H    8.634905   4.978371   6.145214   5.111164   4.242177
                   21         22         23         24         25
    21  C    0.000000
    22  O    2.459877   0.000000
    23  O    1.269751   2.776085   0.000000
    24  O    1.259639   3.539556   2.262328   0.000000
    25  O    5.368275   3.372633   6.060729   6.016619   0.000000
    26  H    4.510010   2.418250   5.133515   5.255720   0.969657
    27  H    5.344412   3.584732   6.121051   5.904284   0.982107
    28  O    3.573216   5.112800   2.889464   3.798021   8.244326
    29  H    2.759037   4.168691   1.983660   3.230945   7.365670
    30  H    3.432317   5.364142   2.898465   3.386589   8.476608
    31  O    3.145872   5.505727   2.912961   2.730573   8.505388
    32  H    2.453167   4.900969   2.604901   1.795050   7.721315
    33  H    2.749530   4.918713   2.199144   2.742085   8.071092
    34  O    6.701970   5.279791   6.506042   7.718029   5.998401
    35  H    6.037975   4.861084   5.737997   7.063208   6.129484
    36  H    6.283986   4.785669   6.264903   7.244044   5.193614
    37  O    7.929112   7.225085   8.911906   7.959026   5.426623
    38  H    7.333089   6.819955   8.288056   7.342605   5.479326
    39  H    7.363683   6.449831   8.327447   7.494861   4.467340
                   26         27         28         29         30
    26  H    0.000000
    27  H    1.527801   0.000000
    28  O    7.312021   8.497850   0.000000
    29  H    6.422049   7.604790   0.975903   0.000000
    30  H    7.565750   8.628309   0.974695   1.477339   0.000000
    31  O    7.655647   8.425699   2.884964   2.854930   2.008331
    32  H    6.907436   7.623835   3.076810   2.865051   2.301397
    33  H    7.186607   8.016779   2.661547   2.398466   2.019707
    34  O    5.662722   5.738720   9.144524   8.209073   9.305008
    35  H    5.655940   5.889810   8.341796   7.426560   8.477782
    36  H    4.923502   4.855296   9.006354   8.049303   9.134039
    37  O    5.924670   4.489320  11.481598  10.657027  11.268302
    38  H    5.829113   4.506986  10.899766  10.081308  10.640022
    39  H    5.002349   3.539320  10.891425  10.045086  10.746800
                   31         32         33         34         35
    31  O    0.000000
    32  H    0.991354   0.000000
    33  H    0.972737   1.458918   0.000000
    34  O    8.860430   8.594659   8.038790   0.000000
    35  H    8.010920   7.806369   7.168785   0.975803   0.000000
    36  H    8.642467   8.276783   7.878316   0.967070   1.500762
    37  O   10.321920   9.497475  10.135715   7.664265   7.924197
    38  H    9.587528   8.798156   9.400029   7.188131   7.363338
    39  H    9.942647   9.107363   9.707755   7.114724   7.384916
                   36         37         38         39
    36  H    0.000000
    37  O    6.729283   0.000000
    38  H    6.277167   0.976891   0.000000
    39  H    6.157620   0.975217   1.445835   0.000000
 Symmetry turned off by external request.
 Stoichiometry    C10H18O11(2-)
 Framework group  C1[X(C10H18O11)]
 Deg. of freedom   111
 Full point group                 C1      NOp   1
 Rotational constants (GHZ):      0.3468005      0.1699025      0.1454608
 Leave Link  202 at Wed Feb  6 07:55:26 2019, MaxMem=    33554432 cpu:         1.1
 (Enter /global/apps/Gaussian/09.d01/l301.exe)
 Standard basis: 6-31G(d,p) (6D, 7F)
 Ernie: Thresh=  0.10000D-02 Tol=  0.10000D-05 Strict=F.
   405 basis functions,   714 primitive gaussians,   405 cartesian basis functions
    84 alpha electrons       84 beta electrons
       nuclear repulsion energy      1873.8052375593 Hartrees.
 IExCor=  402 DFT=T Ex+Corr=B3LYP ExCW=0 ScaHFX=  0.200000
 ScaDFX=  0.800000  0.720000  1.000000  0.810000 ScalE2=  1.000000  1.000000
 IRadAn=      0 IRanWt=     -1 IRanGd=            0 ICorTp=0 IEmpDi=  4
 NAtoms=   39 NActive=   39 NUniq=   39 SFac= 1.00D+00 NAtFMM=   60 NAOKFM=F Big=F
 Integral buffers will be    131072 words long.
 Raffenetti 2 integral format.
 Two-electron integral symmetry is turned off.
 Leave Link  301 at Wed Feb  6 07:55:26 2019, MaxMem=    33554432 cpu:         1.7
 (Enter /global/apps/Gaussian/09.d01/linda-exe/../l302.exel)
 NPDir=0 NMtPBC=     1 NCelOv=     1 NCel=       1 NClECP=     1 NCelD=      1
         NCelK=      1 NCelE2=     1 NClLst=     1 CellRange=     0.0.
 One-electron integrals computed using PRISM.
 PrsmSu:  requested number of processors reduced to:   8 ShMem   1 Linda.
 NBasis=   405 RedAO= T EigKep=  8.66D-04  NBF=   405
 NBsUse=   405 1.00D-06 EigRej= -1.00D+00 NBFU=   405
 Precomputing XC quadrature grid using
 IXCGrd= 4 IRadAn=           0 IRanWt=          -1 IRanGd=           0 AccXCQ= 0.00D+00.
 Generated NRdTot=       0 NPtTot=           0 NUsed=           0 NTot=          32
 NSgBfM=   391   391   394   394   394 MxSgAt=    39 MxSgA2=    39.
 Leave Link  302 at Wed Feb  6 07:55:29 2019, MaxMem=    33554432 cpu:        12.9
 (Enter /global/apps/Gaussian/09.d01/l303.exe)
 DipDrv:  MaxL=1.
 Leave Link  303 at Wed Feb  6 07:55:29 2019, MaxMem=    33554432 cpu:         2.7
 (Enter /global/apps/Gaussian/09.d01/linda-exe/../l401.exel)
 ExpMin= 1.61D-01 ExpMax= 5.48D+03 ExpMxC= 8.25D+02 IAcc=1 IRadAn=         1 AccDes= 0.00D+00
 Harris functional with IExCor=  402 and IRadAn=       1 diagonalized for initial guess.
 HarFok:  IExCor=  402 AccDes= 0.00D+00 IRadAn=         1 IDoV= 1 UseB2=F ITyADJ=14
 ICtDFT=  3500011 ScaDFX=  1.000000  1.000000  1.000000  1.000000
 FoFCou: FMM=F IPFlag=           0 FMFlag=      100000 FMFlg1=           0
         NFxFlg=           0 DoJE=T BraDBF=F KetDBF=T FulRan=T
         wScrn=  0.000000 ICntrl=     500 IOpCl=  0 I1Cent=   200000004 NGrid=           0
         NMat0=    1 NMatS0=      1 NMatT0=    0 NMatD0=    1 NMtDS0=    0 NMtDT0=    0
 Symmetry not used in FoFCou.
 Harris En= -1219.90864134591    
 JPrj=0 DoOrth=F DoCkMO=F.
 Leave Link  401 at Wed Feb  6 07:55:31 2019, MaxMem=    33554432 cpu:        16.1
 (Enter /global/apps/Gaussian/09.d01/linda-exe/../l502.exel)
 Closed shell SCF:
 Using DIIS extrapolation, IDIIS=  1040.
 Two-electron integral symmetry not used.
 IVT=      521233 IEndB=      521233 NGot=    33554432 MDV=    33214270
 LenX=    33214270 LenY=    33049804
 Requested convergence on RMS density matrix=1.00D-08 within 128 cycles.
 Requested convergence on MAX density matrix=1.00D-06.
 Requested convergence on             energy=1.00D-06.
 No special actions if energy rises.
 Fock matrices will be formed incrementally for  20 cycles.
 Integral accuracy reduced to 1.0D-05 until final iterations.

 Cycle   1  Pass 0  IDiag  1:
 FoFJK:  IHMeth= 1 ICntrl=       0 DoSepK=F KAlg= 0 I1Cent=   0 FoldK=F
 IRaf= 700000000 NMat=   1 IRICut=       1 DoRegI=T DoRafI=F ISym2E= 0.
 FoFCou: FMM=F IPFlag=           0 FMFlag=      100000 FMFlg1=           0
         NFxFlg=           0 DoJE=F BraDBF=F KetDBF=F FulRan=T
         wScrn=  0.000000 ICntrl=       0 IOpCl=  0 I1Cent=           0 NGrid=           0
         NMat0=    1 NMatS0=      1 NMatT0=    0 NMatD0=    1 NMtDS0=    0 NMtDT0=    0
 Symmetry not used in FoFCou.
 E= -1218.61775616541    
 DIIS: error= 4.81D-02 at cycle   1 NSaved=   1.
 NSaved= 1 IEnMin= 1 EnMin= -1218.61775616541     IErMin= 1 ErrMin= 4.81D-02
 ErrMax= 4.81D-02  0.00D+00 EMaxC= 1.00D-01 BMatC= 1.02D+00 BMatP= 1.02D+00
 IDIUse=3 WtCom= 5.19D-01 WtEn= 4.81D-01
 Coeff-Com:  0.100D+01
 Coeff-En:   0.100D+01
 Coeff:      0.100D+01
 Gap=     0.083 Goal=   None    Shift=    0.000
 GapD=    0.083 DampG=0.500 DampE=0.500 DampFc=0.2500 IDamp=-1.
 Damping current iteration by 2.50D-01
 RMSDP=4.90D-03 MaxDP=1.71D-01              OVMax= 3.51D-01

 Cycle   2  Pass 0  IDiag  1:
 RMSU=  1.22D-03    CP:  9.93D-01
 E= -1218.90784564410     Delta-E=       -0.290089478685 Rises=F Damp=T
 DIIS: error= 2.02D-02 at cycle   2 NSaved=   2.
 NSaved= 2 IEnMin= 2 EnMin= -1218.90784564410     IErMin= 2 ErrMin= 2.02D-02
 ErrMax= 2.02D-02  0.00D+00 EMaxC= 1.00D-01 BMatC= 1.90D-01 BMatP= 1.02D+00
 IDIUse=3 WtCom= 7.98D-01 WtEn= 2.02D-01
 Coeff-Com: -0.648D+00 0.165D+01
 Coeff-En:   0.000D+00 0.100D+01
 Coeff:     -0.517D+00 0.152D+01
 Gap=     0.134 Goal=   None    Shift=    0.000
 RMSDP=1.41D-03 MaxDP=4.98D-02 DE=-2.90D-01 OVMax= 2.86D-01

 Cycle   3  Pass 0  IDiag  1:
 RMSU=  1.05D-03    CP:  9.81D-01  1.75D+00
 E= -1219.34998337547     Delta-E=       -0.442137731378 Rises=F Damp=F
 DIIS: error= 7.22D-03 at cycle   3 NSaved=   3.
 NSaved= 3 IEnMin= 3 EnMin= -1219.34998337547     IErMin= 3 ErrMin= 7.22D-03
 ErrMax= 7.22D-03  0.00D+00 EMaxC= 1.00D-01 BMatC= 4.66D-02 BMatP= 1.90D-01
 IDIUse=3 WtCom= 9.28D-01 WtEn= 7.22D-02
 Coeff-Com: -0.289D+00 0.803D+00 0.485D+00
 Coeff-En:   0.000D+00 0.000D+00 0.100D+01
 Coeff:     -0.268D+00 0.745D+00 0.522D+00
 Gap=     0.112 Goal=   None    Shift=    0.000
 RMSDP=8.71D-04 MaxDP=3.53D-02 DE=-4.42D-01 OVMax= 1.49D-01

 Cycle   4  Pass 0  IDiag  1:
 RMSU=  5.81D-04    CP:  9.85D-01  1.71D+00  3.88D-01
 E= -1219.37703059370     Delta-E=       -0.027047218226 Rises=F Damp=F
 DIIS: error= 3.85D-03 at cycle   4 NSaved=   4.
 NSaved= 4 IEnMin= 4 EnMin= -1219.37703059370     IErMin= 4 ErrMin= 3.85D-03
 ErrMax= 3.85D-03  0.00D+00 EMaxC= 1.00D-01 BMatC= 1.93D-02 BMatP= 4.66D-02
 IDIUse=3 WtCom= 9.62D-01 WtEn= 3.85D-02
 Coeff-Com: -0.443D-01 0.180D+00 0.380D+00 0.484D+00
 Coeff-En:   0.000D+00 0.000D+00 0.322D+00 0.678D+00
 Coeff:     -0.426D-01 0.173D+00 0.378D+00 0.491D+00
 Gap=     0.125 Goal=   None    Shift=    0.000
 RMSDP=4.32D-04 MaxDP=2.48D-02 DE=-2.70D-02 OVMax= 8.18D-02

 Cycle   5  Pass 0  IDiag  1:
 RMSU=  2.20D-04    CP:  9.85D-01  1.64D+00  5.75D-01  4.77D-01
 E= -1219.39359143793     Delta-E=       -0.016560844232 Rises=F Damp=F
 DIIS: error= 1.20D-03 at cycle   5 NSaved=   5.
 NSaved= 5 IEnMin= 5 EnMin= -1219.39359143793     IErMin= 5 ErrMin= 1.20D-03
 ErrMax= 1.20D-03  0.00D+00 EMaxC= 1.00D-01 BMatC= 2.41D-03 BMatP= 1.93D-02
 IDIUse=3 WtCom= 9.88D-01 WtEn= 1.20D-02
 Coeff-Com:  0.158D-01-0.102D-02 0.180D+00 0.329D+00 0.476D+00
 Coeff-En:   0.000D+00 0.000D+00 0.000D+00 0.110D+00 0.890D+00
 Coeff:      0.156D-01-0.101D-02 0.178D+00 0.327D+00 0.481D+00
 Gap=     0.121 Goal=   None    Shift=    0.000
 RMSDP=1.54D-04 MaxDP=7.81D-03 DE=-1.66D-02 OVMax= 2.59D-02

 Cycle   6  Pass 0  IDiag  1:
 RMSU=  6.57D-05    CP:  9.85D-01  1.66D+00  5.76D-01  5.60D-01  4.08D-01
 E= -1219.39577270710     Delta-E=       -0.002181269166 Rises=F Damp=F
 DIIS: error= 4.27D-04 at cycle   6 NSaved=   6.
 NSaved= 6 IEnMin= 6 EnMin= -1219.39577270710     IErMin= 6 ErrMin= 4.27D-04
 ErrMax= 4.27D-04  0.00D+00 EMaxC= 1.00D-01 BMatC= 1.88D-04 BMatP= 2.41D-03
 IDIUse=3 WtCom= 9.96D-01 WtEn= 4.27D-03
 Coeff-Com:  0.137D-01-0.163D-01 0.734D-01 0.148D+00 0.290D+00 0.491D+00
 Coeff-En:   0.000D+00 0.000D+00 0.000D+00 0.000D+00 0.118D-01 0.988D+00
 Coeff:      0.136D-01-0.163D-01 0.731D-01 0.147D+00 0.289D+00 0.493D+00
 Gap=     0.120 Goal=   None    Shift=    0.000
 RMSDP=3.78D-05 MaxDP=2.12D-03 DE=-2.18D-03 OVMax= 3.70D-03

 Cycle   7  Pass 0  IDiag  1:
 RMSU=  2.23D-05    CP:  9.85D-01  1.66D+00  5.82D-01  5.56D-01  4.75D-01
                    CP:  6.04D-01
 E= -1219.39591069188     Delta-E=       -0.000137984787 Rises=F Damp=F
 DIIS: error= 2.10D-04 at cycle   7 NSaved=   7.
 NSaved= 7 IEnMin= 7 EnMin= -1219.39591069188     IErMin= 7 ErrMin= 2.10D-04
 ErrMax= 2.10D-04  0.00D+00 EMaxC= 1.00D-01 BMatC= 2.33D-05 BMatP= 1.88D-04
 IDIUse=3 WtCom= 9.98D-01 WtEn= 2.10D-03
 Coeff-Com:  0.697D-02-0.980D-02 0.287D-01 0.594D-01 0.139D+00 0.313D+00
 Coeff-Com:  0.464D+00
 Coeff-En:   0.000D+00 0.000D+00 0.000D+00 0.000D+00 0.000D+00 0.503D-01
 Coeff-En:   0.950D+00
 Coeff:      0.696D-02-0.978D-02 0.286D-01 0.593D-01 0.138D+00 0.312D+00
 Coeff:      0.465D+00
 Gap=     0.120 Goal=   None    Shift=    0.000
 RMSDP=1.50D-05 MaxDP=7.45D-04 DE=-1.38D-04 OVMax= 1.75D-03

 Cycle   8  Pass 0  IDiag  1:
 RMSU=  8.42D-06    CP:  9.85D-01  1.66D+00  5.82D-01  5.60D-01  4.84D-01
                    CP:  6.21D-01  4.66D-01
 E= -1219.39592656374     Delta-E=       -0.000015871850 Rises=F Damp=F
 DIIS: error= 9.19D-05 at cycle   8 NSaved=   8.
 NSaved= 8 IEnMin= 8 EnMin= -1219.39592656374     IErMin= 8 ErrMin= 9.19D-05
 ErrMax= 9.19D-05  0.00D+00 EMaxC= 1.00D-01 BMatC= 4.65D-06 BMatP= 2.33D-05
 IDIUse=1 WtCom= 1.00D+00 WtEn= 0.00D+00
 Coeff-Com:  0.293D-02-0.450D-02 0.958D-02 0.201D-01 0.558D-01 0.144D+00
 Coeff-Com:  0.327D+00 0.445D+00
 Coeff:      0.293D-02-0.450D-02 0.958D-02 0.201D-01 0.558D-01 0.144D+00
 Coeff:      0.327D+00 0.445D+00
 Gap=     0.120 Goal=   None    Shift=    0.000
 RMSDP=5.23D-06 MaxDP=2.90D-04 DE=-1.59D-05 OVMax= 5.15D-04

 Initial convergence to 1.0D-05 achieved.  Increase integral accuracy.
 Cycle   9  Pass 1  IDiag  1:
 E= -1219.39617219909     Delta-E=       -0.000245635350 Rises=F Damp=F
 DIIS: error= 3.01D-05 at cycle   1 NSaved=   1.
 NSaved= 1 IEnMin= 1 EnMin= -1219.39617219909     IErMin= 1 ErrMin= 3.01D-05
 ErrMax= 3.01D-05  0.00D+00 EMaxC= 1.00D-01 BMatC= 8.50D-07 BMatP= 8.50D-07
 IDIUse=1 WtCom= 1.00D+00 WtEn= 0.00D+00
 Coeff-Com:  0.100D+01
 Coeff:      0.100D+01
 Gap=     0.120 Goal=   None    Shift=    0.000
 RMSDP=5.23D-06 MaxDP=2.90D-04 DE=-2.46D-04 OVMax= 4.27D-04

 Cycle  10  Pass 1  IDiag  1:
 RMSU=  1.49D-05    CP:  1.00D+00
 E= -1219.39617222850     Delta-E=       -0.000000029411 Rises=F Damp=F
 DIIS: error= 3.21D-05 at cycle   2 NSaved=   2.
 NSaved= 2 IEnMin= 2 EnMin= -1219.39617222850     IErMin= 1 ErrMin= 3.01D-05
 ErrMax= 3.21D-05  0.00D+00 EMaxC= 1.00D-01 BMatC= 1.02D-06 BMatP= 8.50D-07
 IDIUse=1 WtCom= 1.00D+00 WtEn= 0.00D+00
 Coeff-Com:  0.531D+00 0.469D+00
 Coeff:      0.531D+00 0.469D+00
 Gap=     0.120 Goal=   None    Shift=    0.000
 RMSDP=3.78D-06 MaxDP=1.97D-04 DE=-2.94D-08 OVMax= 4.82D-04

 Cycle  11  Pass 1  IDiag  1:
 RMSU=  3.73D-06    CP:  1.00D+00  9.59D-01
 E= -1219.39617275306     Delta-E=       -0.000000524562 Rises=F Damp=F
 DIIS: error= 2.21D-05 at cycle   3 NSaved=   3.
 NSaved= 3 IEnMin= 3 EnMin= -1219.39617275306     IErMin= 3 ErrMin= 2.21D-05
 ErrMax= 2.21D-05  0.00D+00 EMaxC= 1.00D-01 BMatC= 4.10D-07 BMatP= 8.50D-07
 IDIUse=1 WtCom= 1.00D+00 WtEn= 0.00D+00
 Coeff-Com:  0.496D-01 0.378D+00 0.572D+00
 Coeff:      0.496D-01 0.378D+00 0.572D+00
 Gap=     0.120 Goal=   None    Shift=    0.000
 RMSDP=1.91D-06 MaxDP=7.48D-05 DE=-5.25D-07 OVMax= 2.49D-04

 Cycle  12  Pass 1  IDiag  1:
 RMSU=  9.58D-07    CP:  1.00D+00  9.99D-01  5.88D-01
 E= -1219.39617310321     Delta-E=       -0.000000350152 Rises=F Damp=F
 DIIS: error= 6.40D-06 at cycle   4 NSaved=   4.
 NSaved= 4 IEnMin= 4 EnMin= -1219.39617310321     IErMin= 4 ErrMin= 6.40D-06
 ErrMax= 6.40D-06  0.00D+00 EMaxC= 1.00D-01 BMatC= 5.24D-08 BMatP= 4.10D-07
 IDIUse=1 WtCom= 1.00D+00 WtEn= 0.00D+00
 Coeff-Com: -0.113D-01 0.214D+00 0.388D+00 0.409D+00
 Coeff:     -0.113D-01 0.214D+00 0.388D+00 0.409D+00
 Gap=     0.120 Goal=   None    Shift=    0.000
 RMSDP=5.25D-07 MaxDP=3.22D-05 DE=-3.50D-07 OVMax= 5.40D-05

 Cycle  13  Pass 1  IDiag  1:
 RMSU=  2.46D-07    CP:  1.00D+00  9.99D-01  6.35D-01  5.52D-01
 E= -1219.39617314561     Delta-E=       -0.000000042403 Rises=F Damp=F
 DIIS: error= 8.24D-07 at cycle   5 NSaved=   5.
 NSaved= 5 IEnMin= 5 EnMin= -1219.39617314561     IErMin= 5 ErrMin= 8.24D-07
 ErrMax= 8.24D-07  0.00D+00 EMaxC= 1.00D-01 BMatC= 1.38D-09 BMatP= 5.24D-08
 IDIUse=1 WtCom= 1.00D+00 WtEn= 0.00D+00
 Coeff-Com: -0.844D-02 0.105D+00 0.198D+00 0.233D+00 0.472D+00
 Coeff:     -0.844D-02 0.105D+00 0.198D+00 0.233D+00 0.472D+00
 Gap=     0.120 Goal=   None    Shift=    0.000
 RMSDP=1.31D-07 MaxDP=6.82D-06 DE=-4.24D-08 OVMax= 1.96D-05

 Cycle  14  Pass 1  IDiag  1:
 RMSU=  1.07D-07    CP:  1.00D+00  9.99D-01  6.38D-01  5.35D-01  7.00D-01
 E= -1219.39617314664     Delta-E=       -0.000000001024 Rises=F Damp=F
 DIIS: error= 3.40D-07 at cycle   6 NSaved=   6.
 NSaved= 6 IEnMin= 6 EnMin= -1219.39617314664     IErMin= 6 ErrMin= 3.40D-07
 ErrMax= 3.40D-07  0.00D+00 EMaxC= 1.00D-01 BMatC= 2.00D-10 BMatP= 1.38D-09
 IDIUse=1 WtCom= 1.00D+00 WtEn= 0.00D+00
 Coeff-Com: -0.391D-02 0.391D-01 0.744D-01 0.938D-01 0.301D+00 0.495D+00
 Coeff:     -0.391D-02 0.391D-01 0.744D-01 0.938D-01 0.301D+00 0.495D+00
 Gap=     0.120 Goal=   None    Shift=    0.000
 RMSDP=4.82D-08 MaxDP=3.27D-06 DE=-1.02D-09 OVMax= 8.66D-06

 Cycle  15  Pass 1  IDiag  1:
 RMSU=  3.76D-08    CP:  1.00D+00  1.00D+00  6.36D-01  5.33D-01  7.65D-01
                    CP:  7.70D-01
 E= -1219.39617314683     Delta-E=       -0.000000000191 Rises=F Damp=F
 DIIS: error= 1.41D-07 at cycle   7 NSaved=   7.
 NSaved= 7 IEnMin= 7 EnMin= -1219.39617314683     IErMin= 7 ErrMin= 1.41D-07
 ErrMax= 1.41D-07  0.00D+00 EMaxC= 1.00D-01 BMatC= 3.63D-11 BMatP= 2.00D-10
 IDIUse=1 WtCom= 1.00D+00 WtEn= 0.00D+00
 Coeff-Com: -0.875D-03 0.504D-02 0.963D-02 0.166D-01 0.112D+00 0.329D+00
 Coeff-Com:  0.528D+00
 Coeff:     -0.875D-03 0.504D-02 0.963D-02 0.166D-01 0.112D+00 0.329D+00
 Coeff:      0.528D+00
 Gap=     0.120 Goal=   None    Shift=    0.000
 RMSDP=2.45D-08 MaxDP=1.22D-06 DE=-1.91D-10 OVMax= 5.09D-06

 Cycle  16  Pass 1  IDiag  1:
 RMSU=  1.67D-08    CP:  1.00D+00  1.00D+00  6.38D-01  5.39D-01  7.90D-01
                    CP:  8.36D-01  6.61D-01
 E= -1219.39617314693     Delta-E=       -0.000000000103 Rises=F Damp=F
 DIIS: error= 6.27D-08 at cycle   8 NSaved=   8.
 NSaved= 8 IEnMin= 8 EnMin= -1219.39617314693     IErMin= 8 ErrMin= 6.27D-08
 ErrMax= 6.27D-08  0.00D+00 EMaxC= 1.00D-01 BMatC= 7.47D-12 BMatP= 3.63D-11
 IDIUse=1 WtCom= 1.00D+00 WtEn= 0.00D+00
 Coeff-Com:  0.549D-04-0.298D-02-0.602D-02-0.431D-02 0.223D-01 0.124D+00
 Coeff-Com:  0.361D+00 0.506D+00
 Coeff:      0.549D-04-0.298D-02-0.602D-02-0.431D-02 0.223D-01 0.124D+00
 Coeff:      0.361D+00 0.506D+00
 Gap=     0.120 Goal=   None    Shift=    0.000
 RMSDP=8.78D-09 MaxDP=4.53D-07 DE=-1.03D-10 OVMax= 1.31D-06

 SCF Done:  E(RB3LYP) =  -1219.39617315     A.U. after   16 cycles
            NFock= 16  Conv=0.88D-08     -V/T= 2.0085
 KE= 1.209123888643D+03 PE=-6.650437730297D+03 EE= 2.348112430948D+03
 Leave Link  502 at Wed Feb  6 07:55:44 2019, MaxMem=    33554432 cpu:       259.5
 (Enter /global/apps/Gaussian/09.d01/l801.exe)
 DoSCS=F DFT=T ScalE2(SS,OS)=  1.000000  1.000000
 Range of M.O.s used for correlation:     1   405
 NBasis=   405 NAE=    84 NBE=    84 NFC=     0 NFV=     0
 NROrb=    405 NOA=    84 NOB=    84 NVA=   321 NVB=   321
 Leave Link  801 at Wed Feb  6 07:55:45 2019, MaxMem=    33554432 cpu:         0.7
 (Enter /global/apps/Gaussian/09.d01/linda-exe/../l1101.exel)
 Using compressed storage, NAtomX=    39.
 Will process     40 centers per pass.
 PrsmSu:  requested number of processors reduced to:   8 ShMem   1 Linda.
 PrsmSu:  requested number of processors reduced to:   2 ShMem   4 Linda.
 Leave Link 1101 at Wed Feb  6 07:55:46 2019, MaxMem=    33554432 cpu:         9.8
 (Enter /global/apps/Gaussian/09.d01/l1102.exe)
 Symmetrizing basis deriv contribution to polar:
 IMax=3 JMax=2 DiffMx= 0.00D+00
 Leave Link 1102 at Wed Feb  6 07:55:46 2019, MaxMem=    33554432 cpu:         1.9
 (Enter /global/apps/Gaussian/09.d01/linda-exe/../l1110.exel)
 Forming Gx(P) for the SCF density, NAtomX=    39.
 Integral derivatives from FoFJK, PRISM(SPDF).
 Do as many integral derivatives as possible in FoFJK.
 G2DrvN: MDV=      33554016.
 G2DrvN: will do     1 centers at a time, making   40 passes.
 Estimated number of processors is:   12
 G2DrvN:  IPasSy=1 do centers    0 through    0.
 Calling FoFCou, ICntrl=  3107 FMM=F I1Cent=   0 AccDes= 0.00D+00.
 FoFJK:  IHMeth= 1 ICntrl=    3107 DoSepK=F KAlg= 0 I1Cent=   0 FoldK=F
 IRaf=         0 NMat=   1 IRICut=       1 DoRegI=T DoRafI=F ISym2E= 0.
 FoFCou: FMM=F IPFlag=           0 FMFlag=      100000 FMFlg1=           0
         NFxFlg=           0 DoJE=F BraDBF=F KetDBF=F FulRan=T
         wScrn=  0.000000 ICntrl=    3107 IOpCl=  0 I1Cent=           0 NGrid=           0
         NMat0=    1 NMatS0=      1 NMatT0=    0 NMatD0=    1 NMtDS0=    0 NMtDT0=    0
 Symmetry not used in FoFCou.
 CoulSu:  requested number of processors reduced to:  13 ShMem   4 Linda.
 CalDSu:  requested number of processors reduced to:  16 ShMem   4 Linda.
 G2DrvN:  IPasSy=1 do centers    1 through    1.
 Calling FoFCou, ICntrl=  3107 FMM=F I1Cent=   0 AccDes= 0.00D+00.
 CoulSu:  requested number of processors reduced to:  12 ShMem   4 Linda.
 CalDSu:  requested number of processors reduced to:  16 ShMem   4 Linda.
 G2DrvN:  IPasSy=1 do centers    2 through    2.
 Calling FoFCou, ICntrl=  3107 FMM=F I1Cent=   0 AccDes= 0.00D+00.
 CoulSu:  requested number of processors reduced to:  12 ShMem   4 Linda.
 CalDSu:  requested number of processors reduced to:  16 ShMem   4 Linda.
 G2DrvN:  IPasSy=1 do centers    3 through    3.
 Calling FoFCou, ICntrl=  3107 FMM=F I1Cent=   0 AccDes= 0.00D+00.
 CoulSu:  requested number of processors reduced to:  12 ShMem   4 Linda.
 CalDSu:  requested number of processors reduced to:  16 ShMem   4 Linda.
 G2DrvN:  IPasSy=1 do centers    4 through    4.
 Calling FoFCou, ICntrl=  3107 FMM=F I1Cent=   0 AccDes= 0.00D+00.
 CoulSu:  requested number of processors reduced to:  12 ShMem   4 Linda.
 CalDSu:  requested number of processors reduced to:  16 ShMem   4 Linda.
 G2DrvN:  IPasSy=1 do centers    5 through    5.
 Calling FoFCou, ICntrl=  3107 FMM=F I1Cent=   0 AccDes= 0.00D+00.
 CoulSu:  requested number of processors reduced to:  12 ShMem   4 Linda.
 CalDSu:  requested number of processors reduced to:  16 ShMem   4 Linda.
 G2DrvN:  IPasSy=1 do centers    6 through    6.
 Calling FoFCou, ICntrl=  3107 FMM=F I1Cent=   0 AccDes= 0.00D+00.
 CoulSu:  requested number of processors reduced to:  12 ShMem   4 Linda.
 CalDSu:  requested number of processors reduced to:  16 ShMem   4 Linda.
 G2DrvN:  IPasSy=1 do centers    7 through    7.
 Calling FoFCou, ICntrl=  3107 FMM=F I1Cent=   0 AccDes= 0.00D+00.
 CoulSu:  requested number of processors reduced to:  12 ShMem   4 Linda.
 CalDSu:  requested number of processors reduced to:  16 ShMem   4 Linda.
 G2DrvN:  IPasSy=1 do centers    8 through    8.
 Calling FoFCou, ICntrl=  3107 FMM=F I1Cent=   0 AccDes= 0.00D+00.
 CoulSu:  requested number of processors reduced to:  12 ShMem   4 Linda.
 CalDSu:  requested number of processors reduced to:  16 ShMem   4 Linda.
 G2DrvN:  IPasSy=1 do centers    9 through    9.
 Calling FoFCou, ICntrl=  3107 FMM=F I1Cent=   0 AccDes= 0.00D+00.
 CoulSu:  requested number of processors reduced to:  12 ShMem   4 Linda.
 CalDSu:  requested number of processors reduced to:  16 ShMem   4 Linda.
 G2DrvN:  IPasSy=1 do centers   10 through   10.
 Calling FoFCou, ICntrl=  3107 FMM=F I1Cent=   0 AccDes= 0.00D+00.
 CoulSu:  requested number of processors reduced to:  12 ShMem   4 Linda.
 CalDSu:  requested number of processors reduced to:  16 ShMem   4 Linda.
 G2DrvN:  IPasSy=1 do centers   11 through   11.
 Calling FoFCou, ICntrl=  3107 FMM=F I1Cent=   0 AccDes= 0.00D+00.
 CoulSu:  requested number of processors reduced to:  12 ShMem   4 Linda.
 CalDSu:  requested number of processors reduced to:  16 ShMem   4 Linda.
 G2DrvN:  IPasSy=1 do centers   12 through   12.
 Calling FoFCou, ICntrl=  3107 FMM=F I1Cent=   0 AccDes= 0.00D+00.
 CoulSu:  requested number of processors reduced to:  12 ShMem   4 Linda.
 CalDSu:  requested number of processors reduced to:  16 ShMem   4 Linda.
 G2DrvN:  IPasSy=1 do centers   13 through   13.
 Calling FoFCou, ICntrl=  3107 FMM=F I1Cent=   0 AccDes= 0.00D+00.
 CoulSu:  requested number of processors reduced to:  12 ShMem   4 Linda.
 CalDSu:  requested number of processors reduced to:  16 ShMem   4 Linda.
 G2DrvN:  IPasSy=1 do centers   14 through   14.
 Calling FoFCou, ICntrl=  3107 FMM=F I1Cent=   0 AccDes= 0.00D+00.
 CoulSu:  requested number of processors reduced to:  12 ShMem   4 Linda.
 CalDSu:  requested number of processors reduced to:  16 ShMem   4 Linda.
 G2DrvN:  IPasSy=1 do centers   15 through   15.
 Calling FoFCou, ICntrl=  3107 FMM=F I1Cent=   0 AccDes= 0.00D+00.
 CoulSu:  requested number of processors reduced to:  12 ShMem   4 Linda.
 CalDSu:  requested number of processors reduced to:  16 ShMem   4 Linda.
 G2DrvN:  IPasSy=1 do centers   16 through   16.
 Calling FoFCou, ICntrl=  3107 FMM=F I1Cent=   0 AccDes= 0.00D+00.
 CoulSu:  requested number of processors reduced to:  12 ShMem   4 Linda.
 CalDSu:  requested number of processors reduced to:  16 ShMem   4 Linda.
 G2DrvN:  IPasSy=1 do centers   17 through   17.
 Calling FoFCou, ICntrl=  3107 FMM=F I1Cent=   0 AccDes= 0.00D+00.
 CoulSu:  requested number of processors reduced to:  12 ShMem   4 Linda.
 CalDSu:  requested number of processors reduced to:  16 ShMem   4 Linda.
 G2DrvN:  IPasSy=1 do centers   18 through   18.
 Calling FoFCou, ICntrl=  3107 FMM=F I1Cent=   0 AccDes= 0.00D+00.
 CoulSu:  requested number of processors reduced to:  12 ShMem   4 Linda.
 CalDSu:  requested number of processors reduced to:  16 ShMem   4 Linda.
 G2DrvN:  IPasSy=1 do centers   19 through   19.
 Calling FoFCou, ICntrl=  3107 FMM=F I1Cent=   0 AccDes= 0.00D+00.
 CoulSu:  requested number of processors reduced to:  12 ShMem   4 Linda.
 CalDSu:  requested number of processors reduced to:  16 ShMem   4 Linda.
 G2DrvN:  IPasSy=1 do centers   20 through   20.
 Calling FoFCou, ICntrl=  3107 FMM=F I1Cent=   0 AccDes= 0.00D+00.
 CoulSu:  requested number of processors reduced to:  12 ShMem   4 Linda.
 CalDSu:  requested number of processors reduced to:  16 ShMem   4 Linda.
 G2DrvN:  IPasSy=1 do centers   21 through   21.
 Calling FoFCou, ICntrl=  3107 FMM=F I1Cent=   0 AccDes= 0.00D+00.
 CoulSu:  requested number of processors reduced to:  12 ShMem   4 Linda.
 CalDSu:  requested number of processors reduced to:  16 ShMem   4 Linda.
 G2DrvN:  IPasSy=1 do centers   22 through   22.
 Calling FoFCou, ICntrl=  3107 FMM=F I1Cent=   0 AccDes= 0.00D+00.
 CoulSu:  requested number of processors reduced to:  12 ShMem   4 Linda.
 CalDSu:  requested number of processors reduced to:  16 ShMem   4 Linda.
 G2DrvN:  IPasSy=1 do centers   23 through   23.
 Calling FoFCou, ICntrl=  3107 FMM=F I1Cent=   0 AccDes= 0.00D+00.
 CoulSu:  requested number of processors reduced to:  12 ShMem   4 Linda.
 CalDSu:  requested number of processors reduced to:  16 ShMem   4 Linda.
 G2DrvN:  IPasSy=1 do centers   24 through   24.
 Calling FoFCou, ICntrl=  3107 FMM=F I1Cent=   0 AccDes= 0.00D+00.
 CoulSu:  requested number of processors reduced to:  12 ShMem   4 Linda.
 CalDSu:  requested number of processors reduced to:  16 ShMem   4 Linda.
 G2DrvN:  IPasSy=1 do centers   25 through   25.
 Calling FoFCou, ICntrl=  3107 FMM=F I1Cent=   0 AccDes= 0.00D+00.
 CoulSu:  requested number of processors reduced to:  12 ShMem   4 Linda.
 CalDSu:  requested number of processors reduced to:  16 ShMem   4 Linda.
 G2DrvN:  IPasSy=1 do centers   26 through   26.
 Calling FoFCou, ICntrl=  3107 FMM=F I1Cent=   0 AccDes= 0.00D+00.
 CoulSu:  requested number of processors reduced to:  12 ShMem   4 Linda.
 CalDSu:  requested number of processors reduced to:  16 ShMem   4 Linda.
 G2DrvN:  IPasSy=1 do centers   27 through   27.
 Calling FoFCou, ICntrl=  3107 FMM=F I1Cent=   0 AccDes= 0.00D+00.
 CoulSu:  requested number of processors reduced to:  12 ShMem   4 Linda.
 CalDSu:  requested number of processors reduced to:  16 ShMem   4 Linda.
 G2DrvN:  IPasSy=1 do centers   28 through   28.
 Calling FoFCou, ICntrl=  3107 FMM=F I1Cent=   0 AccDes= 0.00D+00.
 CoulSu:  requested number of processors reduced to:  12 ShMem   4 Linda.
 CalDSu:  requested number of processors reduced to:  16 ShMem   4 Linda.
 G2DrvN:  IPasSy=1 do centers   29 through   29.
 Calling FoFCou, ICntrl=  3107 FMM=F I1Cent=   0 AccDes= 0.00D+00.
 CoulSu:  requested number of processors reduced to:  12 ShMem   4 Linda.
 CalDSu:  requested number of processors reduced to:  16 ShMem   4 Linda.
 G2DrvN:  IPasSy=1 do centers   30 through   30.
 Calling FoFCou, ICntrl=  3107 FMM=F I1Cent=   0 AccDes= 0.00D+00.
 CoulSu:  requested number of processors reduced to:  12 ShMem   4 Linda.
 CalDSu:  requested number of processors reduced to:  16 ShMem   4 Linda.
 G2DrvN:  IPasSy=1 do centers   31 through   31.
 Calling FoFCou, ICntrl=  3107 FMM=F I1Cent=   0 AccDes= 0.00D+00.
 CoulSu:  requested number of processors reduced to:  12 ShMem   4 Linda.
 CalDSu:  requested number of processors reduced to:  16 ShMem   4 Linda.
 G2DrvN:  IPasSy=1 do centers   32 through   32.
 Calling FoFCou, ICntrl=  3107 FMM=F I1Cent=   0 AccDes= 0.00D+00.
 CoulSu:  requested number of processors reduced to:  12 ShMem   4 Linda.
 CalDSu:  requested number of processors reduced to:  16 ShMem   4 Linda.
 G2DrvN:  IPasSy=1 do centers   33 through   33.
 Calling FoFCou, ICntrl=  3107 FMM=F I1Cent=   0 AccDes= 0.00D+00.
 CoulSu:  requested number of processors reduced to:  12 ShMem   4 Linda.
 CalDSu:  requested number of processors reduced to:  16 ShMem   4 Linda.
 G2DrvN:  IPasSy=1 do centers   34 through   34.
 Calling FoFCou, ICntrl=  3107 FMM=F I1Cent=   0 AccDes= 0.00D+00.
 CoulSu:  requested number of processors reduced to:  12 ShMem   4 Linda.
 CalDSu:  requested number of processors reduced to:  16 ShMem   4 Linda.
 G2DrvN:  IPasSy=1 do centers   35 through   35.
 Calling FoFCou, ICntrl=  3107 FMM=F I1Cent=   0 AccDes= 0.00D+00.
 CoulSu:  requested number of processors reduced to:  12 ShMem   4 Linda.
 CalDSu:  requested number of processors reduced to:  16 ShMem   4 Linda.
 G2DrvN:  IPasSy=1 do centers   36 through   36.
 Calling FoFCou, ICntrl=  3107 FMM=F I1Cent=   0 AccDes= 0.00D+00.
 CoulSu:  requested number of processors reduced to:  12 ShMem   4 Linda.
 CalDSu:  requested number of processors reduced to:  16 ShMem   4 Linda.
 G2DrvN:  IPasSy=1 do centers   37 through   37.
 Calling FoFCou, ICntrl=  3107 FMM=F I1Cent=   0 AccDes= 0.00D+00.
 CoulSu:  requested number of processors reduced to:  12 ShMem   4 Linda.
 CalDSu:  requested number of processors reduced to:  16 ShMem   4 Linda.
 G2DrvN:  IPasSy=1 do centers   38 through   38.
 Calling FoFCou, ICntrl=  3107 FMM=F I1Cent=   0 AccDes= 0.00D+00.
 CoulSu:  requested number of processors reduced to:  12 ShMem   4 Linda.
 CalDSu:  requested number of processors reduced to:  16 ShMem   4 Linda.
 G2DrvN:  IPasSy=1 do centers   39 through   39.
 Calling FoFCou, ICntrl=  3107 FMM=F I1Cent=   0 AccDes= 0.00D+00.
 CoulSu:  requested number of processors reduced to:  12 ShMem   4 Linda.
 CalDSu:  requested number of processors reduced to:  16 ShMem   4 Linda.
 End of G2Drv F.D. properties file   721 does not exist.
 End of G2Drv F.D. properties file   722 does not exist.
 End of G2Drv F.D. properties file   788 does not exist.
 Leave Link 1110 at Wed Feb  6 07:56:51 2019, MaxMem=    33554432 cpu:       945.5
 (Enter /global/apps/Gaussian/09.d01/linda-exe/../l1002.exel)
 Minotr:  Closed shell wavefunction.
          IDoAtm=111111111111111111111111111111111111111
          Direct CPHF calculation.
          Differentiating once with respect to nuclear coordinates.
          Requested convergence is 1.0D-08 RMS, and 1.0D-07 maximum.
          Secondary convergence is 1.0D-12 RMS, and 1.0D-12 maximum.
          NewPWx=T KeepS1=F KeepF1=F KeepIn=T MapXYZ=F SortEE=F KeepMc=T.
          MDV=      33553633 using IRadAn=       2.
 Generate precomputed XC quadrature information.
          Solving linear equations simultaneously, MaxMat=       0.
 FoFJK:  IHMeth= 1 ICntrl=       0 DoSepK=F KAlg= 0 I1Cent=   0 FoldK=F
 IRaf= 700000000 NMat=   8 IRICut=       1 DoRegI=T DoRafI=F ISym2E= 0.
 FoFCou: FMM=F IPFlag=           0 FMFlag=      100000 FMFlg1=           0
         NFxFlg=           0 DoJE=F BraDBF=F KetDBF=F FulRan=T
         wScrn=  0.000000 ICntrl=       0 IOpCl=  0 I1Cent=           0 NGrid=           0
         NMat0=    8 NMatS0=      8 NMatT0=    0 NMatD0=    8 NMtDS0=    0 NMtDT0=    0
 Symmetry not used in FoFCou.
 CoulSu:  requested number of processors reduced to:  19 ShMem   4 Linda.
 CalDSu:  requested number of processors reduced to:  15 ShMem   4 Linda.
 CoulSu:  requested number of processors reduced to:  19 ShMem   4 Linda.
 CalDSu:  requested number of processors reduced to:  15 ShMem   4 Linda.
 CoulSu:  requested number of processors reduced to:  19 ShMem   4 Linda.
 CalDSu:  requested number of processors reduced to:  15 ShMem   4 Linda.
 CoulSu:  requested number of processors reduced to:  19 ShMem   4 Linda.
 CalDSu:  requested number of processors reduced to:  15 ShMem   4 Linda.
 CoulSu:  requested number of processors reduced to:  19 ShMem   4 Linda.
 CalDSu:  requested number of processors reduced to:  15 ShMem   4 Linda.
 CoulSu:  requested number of processors reduced to:  19 ShMem   4 Linda.
 CalDSu:  requested number of processors reduced to:  15 ShMem   4 Linda.
 CoulSu:  requested number of processors reduced to:  19 ShMem   4 Linda.
 CalDSu:  requested number of processors reduced to:  15 ShMem   4 Linda.
 CoulSu:  requested number of processors reduced to:  19 ShMem   4 Linda.
 CalDSu:  requested number of processors reduced to:  15 ShMem   4 Linda.
 CoulSu:  requested number of processors reduced to:  19 ShMem   4 Linda.
 CalDSu:  requested number of processors reduced to:  15 ShMem   4 Linda.
 CoulSu:  requested number of processors reduced to:  19 ShMem   4 Linda.
 CalDSu:  requested number of processors reduced to:  15 ShMem   4 Linda.
 CoulSu:  requested number of processors reduced to:  19 ShMem   4 Linda.
 CalDSu:  requested number of processors reduced to:  15 ShMem   4 Linda.
 CoulSu:  requested number of processors reduced to:  19 ShMem   4 Linda.
 CalDSu:  requested number of processors reduced to:  15 ShMem   4 Linda.
 CoulSu:  requested number of processors reduced to:  19 ShMem   4 Linda.
 CalDSu:  requested number of processors reduced to:  15 ShMem   4 Linda.
 CoulSu:  requested number of processors reduced to:  19 ShMem   4 Linda.
 CalDSu:  requested number of processors reduced to:  15 ShMem   4 Linda.
 CoulSu:  requested number of processors reduced to:  19 ShMem   4 Linda.
 CalDSu:  requested number of processors reduced to:  15 ShMem   4 Linda.
          There are   120 degrees of freedom in the 1st order CPHF.  IDoFFX=6 NUNeed=     0.
    117 vectors produced by pass  0 Test12= 2.70D-14 1.00D-09 XBig12= 2.62D-01 1.26D-01.
 AX will form     8 AO Fock derivatives at one time.
 CoulSu:  requested number of processors reduced to:  19 ShMem   4 Linda.
 CalDSu:  requested number of processors reduced to:  15 ShMem   4 Linda.
 CoulSu:  requested number of processors reduced to:  19 ShMem   4 Linda.
 CalDSu:  requested number of processors reduced to:  15 ShMem   4 Linda.
 CoulSu:  requested number of processors reduced to:  19 ShMem   4 Linda.
 CalDSu:  requested number of processors reduced to:  15 ShMem   4 Linda.
 CoulSu:  requested number of processors reduced to:  19 ShMem   4 Linda.
 CalDSu:  requested number of processors reduced to:  15 ShMem   4 Linda.
 CoulSu:  requested number of processors reduced to:  19 ShMem   4 Linda.
 CalDSu:  requested number of processors reduced to:  15 ShMem   4 Linda.
 CoulSu:  requested number of processors reduced to:  19 ShMem   4 Linda.
 CalDSu:  requested number of processors reduced to:  15 ShMem   4 Linda.
 CoulSu:  requested number of processors reduced to:  19 ShMem   4 Linda.
 CalDSu:  requested number of processors reduced to:  15 ShMem   4 Linda.
 CoulSu:  requested number of processors reduced to:  19 ShMem   4 Linda.
 CalDSu:  requested number of processors reduced to:  15 ShMem   4 Linda.
 CoulSu:  requested number of processors reduced to:  19 ShMem   4 Linda.
 CalDSu:  requested number of processors reduced to:  15 ShMem   4 Linda.
 CoulSu:  requested number of processors reduced to:  19 ShMem   4 Linda.
 CalDSu:  requested number of processors reduced to:  15 ShMem   4 Linda.
 CoulSu:  requested number of processors reduced to:  19 ShMem   4 Linda.
 CalDSu:  requested number of processors reduced to:  15 ShMem   4 Linda.
 CoulSu:  requested number of processors reduced to:  19 ShMem   4 Linda.
 CalDSu:  requested number of processors reduced to:  15 ShMem   4 Linda.
 CoulSu:  requested number of processors reduced to:  19 ShMem   4 Linda.
 CalDSu:  requested number of processors reduced to:  15 ShMem   4 Linda.
 CoulSu:  requested number of processors reduced to:  19 ShMem   4 Linda.
 CalDSu:  requested number of processors reduced to:  15 ShMem   4 Linda.
 CalDSu:  requested number of processors reduced to:  17 ShMem   4 Linda.
    117 vectors produced by pass  1 Test12= 2.70D-14 1.00D-09 XBig12= 2.75D-02 4.98D-02.
 CoulSu:  requested number of processors reduced to:  19 ShMem   4 Linda.
 CalDSu:  requested number of processors reduced to:  15 ShMem   4 Linda.
 CoulSu:  requested number of processors reduced to:  19 ShMem   4 Linda.
 CalDSu:  requested number of processors reduced to:  15 ShMem   4 Linda.
 CoulSu:  requested number of processors reduced to:  19 ShMem   4 Linda.
 CalDSu:  requested number of processors reduced to:  15 ShMem   4 Linda.
 CoulSu:  requested number of processors reduced to:  19 ShMem   4 Linda.
 CalDSu:  requested number of processors reduced to:  15 ShMem   4 Linda.
 CoulSu:  requested number of processors reduced to:  19 ShMem   4 Linda.
 CalDSu:  requested number of processors reduced to:  15 ShMem   4 Linda.
 CoulSu:  requested number of processors reduced to:  19 ShMem   4 Linda.
 CalDSu:  requested number of processors reduced to:  15 ShMem   4 Linda.
 CoulSu:  requested number of processors reduced to:  19 ShMem   4 Linda.
 CalDSu:  requested number of processors reduced to:  15 ShMem   4 Linda.
 CoulSu:  requested number of processors reduced to:  19 ShMem   4 Linda.
 CalDSu:  requested number of processors reduced to:  15 ShMem   4 Linda.
 CoulSu:  requested number of processors reduced to:  19 ShMem   4 Linda.
 CalDSu:  requested number of processors reduced to:  15 ShMem   4 Linda.
 CoulSu:  requested number of processors reduced to:  19 ShMem   4 Linda.
 CalDSu:  requested number of processors reduced to:  15 ShMem   4 Linda.
 CoulSu:  requested number of processors reduced to:  19 ShMem   4 Linda.
 CalDSu:  requested number of processors reduced to:  15 ShMem   4 Linda.
 CoulSu:  requested number of processors reduced to:  19 ShMem   4 Linda.
 CalDSu:  requested number of processors reduced to:  15 ShMem   4 Linda.
 CoulSu:  requested number of processors reduced to:  19 ShMem   4 Linda.
 CalDSu:  requested number of processors reduced to:  15 ShMem   4 Linda.
 CoulSu:  requested number of processors reduced to:  19 ShMem   4 Linda.
 CalDSu:  requested number of processors reduced to:  15 ShMem   4 Linda.
 CalDSu:  requested number of processors reduced to:  17 ShMem   4 Linda.
    115 vectors produced by pass  2 Test12= 2.70D-14 1.00D-09 XBig12= 2.67D-04 3.82D-03.
 CoulSu:  requested number of processors reduced to:  19 ShMem   4 Linda.
 CalDSu:  requested number of processors reduced to:  15 ShMem   4 Linda.
 CoulSu:  requested number of processors reduced to:  19 ShMem   4 Linda.
 CalDSu:  requested number of processors reduced to:  15 ShMem   4 Linda.
 CoulSu:  requested number of processors reduced to:  19 ShMem   4 Linda.
 CalDSu:  requested number of processors reduced to:  15 ShMem   4 Linda.
 CoulSu:  requested number of processors reduced to:  19 ShMem   4 Linda.
 CalDSu:  requested number of processors reduced to:  15 ShMem   4 Linda.
 CalDSu:  requested number of processors reduced to:  15 ShMem   4 Linda.
 CalDSu:  requested number of processors reduced to:  15 ShMem   4 Linda.
 CoulSu:  requested number of processors reduced to:  19 ShMem   4 Linda.
 CalDSu:  requested number of processors reduced to:  15 ShMem   4 Linda.
 CoulSu:  requested number of processors reduced to:  19 ShMem   4 Linda.
 CalDSu:  requested number of processors reduced to:  15 ShMem   4 Linda.
 CalDSu:  requested number of processors reduced to:  15 ShMem   4 Linda.
 CalDSu:  requested number of processors reduced to:  15 ShMem   4 Linda.
 CoulSu:  requested number of processors reduced to:  19 ShMem   4 Linda.
 CalDSu:  requested number of processors reduced to:  15 ShMem   4 Linda.
 CalDSu:  requested number of processors reduced to:  15 ShMem   4 Linda.
 CoulSu:  requested number of processors reduced to:  19 ShMem   4 Linda.
 CalDSu:  requested number of processors reduced to:  15 ShMem   4 Linda.
 CoulSu:  requested number of processors reduced to:  19 ShMem   4 Linda.
 CalDSu:  requested number of processors reduced to:  15 ShMem   4 Linda.
 CalDSu:  requested number of processors reduced to:  18 ShMem   4 Linda.
    114 vectors produced by pass  3 Test12= 2.70D-14 1.00D-09 XBig12= 1.13D-06 1.68D-04.
 CalDSu:  requested number of processors reduced to:  15 ShMem   4 Linda.
 CalDSu:  requested number of processors reduced to:  15 ShMem   4 Linda.
 CalDSu:  requested number of processors reduced to:  15 ShMem   4 Linda.
 CalDSu:  requested number of processors reduced to:  15 ShMem   4 Linda.
 CalDSu:  requested number of processors reduced to:  15 ShMem   4 Linda.
 CalDSu:  requested number of processors reduced to:  15 ShMem   4 Linda.
 CalDSu:  requested number of processors reduced to:  15 ShMem   4 Linda.
 CalDSu:  requested number of processors reduced to:  15 ShMem   4 Linda.
 CalDSu:  requested number of processors reduced to:  15 ShMem   4 Linda.
 CalDSu:  requested number of processors reduced to:  15 ShMem   4 Linda.
 CalDSu:  requested number of processors reduced to:  15 ShMem   4 Linda.
 CalDSu:  requested number of processors reduced to:  15 ShMem   4 Linda.
 CalDSu:  requested number of processors reduced to:  15 ShMem   4 Linda.
 CalDSu:  requested number of processors reduced to:  15 ShMem   4 Linda.
 CalDSu:  requested number of processors reduced to:  19 ShMem   4 Linda.
    114 vectors produced by pass  4 Test12= 2.70D-14 1.00D-09 XBig12= 2.24D-09 4.80D-06.
 CalDSu:  requested number of processors reduced to:  15 ShMem   4 Linda.
 CalDSu:  requested number of processors reduced to:  15 ShMem   4 Linda.
 CalDSu:  requested number of processors reduced to:  15 ShMem   4 Linda.
 CalDSu:  requested number of processors reduced to:  15 ShMem   4 Linda.
 CalDSu:  requested number of processors reduced to:  15 ShMem   4 Linda.
 CalDSu:  requested number of processors reduced to:  15 ShMem   4 Linda.
 CalDSu:  requested number of processors reduced to:  15 ShMem   4 Linda.
 CalDSu:  requested number of processors reduced to:  15 ShMem   4 Linda.
 CalDSu:  requested number of processors reduced to:  15 ShMem   4 Linda.
 CalDSu:  requested number of processors reduced to:  15 ShMem   4 Linda.
 CalDSu:  requested number of processors reduced to:  15 ShMem   4 Linda.
 CalDSu:  requested number of processors reduced to:  15 ShMem   4 Linda.
 CalDSu:  requested number of processors reduced to:  15 ShMem   4 Linda.
 CalDSu:  requested number of processors reduced to:  15 ShMem   4 Linda.
 CalDSu:  requested number of processors reduced to:  19 ShMem   4 Linda.
    100 vectors produced by pass  5 Test12= 2.70D-14 1.00D-09 XBig12= 2.78D-12 1.74D-07.
 CalDSu:  requested number of processors reduced to:  15 ShMem   4 Linda.
 CalDSu:  requested number of processors reduced to:  15 ShMem   4 Linda.
 CalDSu:  requested number of processors reduced to:  15 ShMem   4 Linda.
 CalDSu:  requested number of processors reduced to:  15 ShMem   4 Linda.
 CalDSu:  requested number of processors reduced to:  15 ShMem   4 Linda.
 CalDSu:  requested number of processors reduced to:  15 ShMem   4 Linda.
 CalDSu:  requested number of processors reduced to:  15 ShMem   4 Linda.
 CalDSu:  requested number of processors reduced to:  15 ShMem   4 Linda.
 CalDSu:  requested number of processors reduced to:  15 ShMem   4 Linda.
 CalDSu:  requested number of processors reduced to:  15 ShMem   4 Linda.
 CalDSu:  requested number of processors reduced to:  15 ShMem   4 Linda.
 CalDSu:  requested number of processors reduced to:  15 ShMem   4 Linda.
 CalDSu:  requested number of processors reduced to:  18 ShMem   4 Linda.
     19 vectors produced by pass  6 Test12= 2.70D-14 1.00D-09 XBig12= 2.78D-15 5.99D-09.
 CalDSu:  requested number of processors reduced to:  16 ShMem   4 Linda.
 CalDSu:  requested number of processors reduced to:  16 ShMem   4 Linda.
 CalDSu:  requested number of processors reduced to:  17 ShMem   4 Linda.
 InvSVY:  IOpt=1 It=  1 EMax= 1.22D-15
 Solved reduced A of dimension   696 with   120 vectors.
 End of Minotr F.D. properties file   721 does not exist.
 End of Minotr F.D. properties file   722 does not exist.
 End of Minotr F.D. properties file   788 does not exist.
 Leave Link 1002 at Wed Feb  6 07:58:46 2019, MaxMem=    33554432 cpu:      2123.9
 (Enter /global/apps/Gaussian/09.d01/l601.exe)
 Copying SCF densities to generalized density rwf, IOpCl= 0 IROHF=0.

 **********************************************************************

            Population analysis using the SCF density.

 **********************************************************************

 Alpha  occ. eigenvalues --  -18.98627 -18.93420 -18.92929 -18.90483 -18.90194
 Alpha  occ. eigenvalues --  -18.88635 -18.87963 -18.87804 -18.87738 -18.87553
 Alpha  occ. eigenvalues --  -18.87514 -10.06246 -10.05315 -10.04973 -10.03151
 Alpha  occ. eigenvalues --  -10.02041 -10.01072  -9.99479  -9.99382  -9.98539
 Alpha  occ. eigenvalues --   -9.96940  -0.84711  -0.81089  -0.80817  -0.79347
 Alpha  occ. eigenvalues --   -0.78444  -0.76157  -0.76002  -0.74396  -0.73732
 Alpha  occ. eigenvalues --   -0.72057  -0.71475  -0.64871  -0.55817  -0.54747
 Alpha  occ. eigenvalues --   -0.51050  -0.43368  -0.40724  -0.37673  -0.33966
 Alpha  occ. eigenvalues --   -0.33475  -0.31471  -0.29707  -0.28170  -0.27273
 Alpha  occ. eigenvalues --   -0.26374  -0.26253  -0.25617  -0.24521  -0.24275
 Alpha  occ. eigenvalues --   -0.23678  -0.23082  -0.22633  -0.22088  -0.21001
 Alpha  occ. eigenvalues --   -0.19491  -0.18952  -0.18504  -0.18095  -0.17440
 Alpha  occ. eigenvalues --   -0.17144  -0.16480  -0.15847  -0.15364  -0.14096
 Alpha  occ. eigenvalues --   -0.13828  -0.13724  -0.13359  -0.11591  -0.09917
 Alpha  occ. eigenvalues --   -0.09409  -0.07222  -0.06653  -0.06354  -0.05019
 Alpha  occ. eigenvalues --   -0.04498  -0.04146  -0.03384  -0.03141  -0.02779
 Alpha  occ. eigenvalues --   -0.02351  -0.01856  -0.00608  -0.00193
 Alpha virt. eigenvalues --    0.11832   0.19415   0.22050   0.23511   0.25987
 Alpha virt. eigenvalues --    0.29271   0.30569   0.32660   0.33297   0.33771
 Alpha virt. eigenvalues --    0.34407   0.35300   0.36645   0.37514   0.38144
 Alpha virt. eigenvalues --    0.39351   0.39838   0.39958   0.40821   0.41296
 Alpha virt. eigenvalues --    0.41504   0.43536   0.43817   0.44381   0.45990
 Alpha virt. eigenvalues --    0.46666   0.47343   0.49563   0.50912   0.52353
 Alpha virt. eigenvalues --    0.54039   0.56233   0.56854   0.59273   0.59601
 Alpha virt. eigenvalues --    0.62804   0.66390   0.67989   0.69098   0.69714
 Alpha virt. eigenvalues --    0.73628   0.76092   0.76316   0.76693   0.78377
 Alpha virt. eigenvalues --    0.79740   0.81294   0.82097   0.82470   0.83371
 Alpha virt. eigenvalues --    0.84128   0.85293   0.86079   0.86533   0.88014
 Alpha virt. eigenvalues --    0.89113   0.89815   0.91931   0.92267   0.93042
 Alpha virt. eigenvalues --    0.94596   0.95463   0.97455   0.97913   0.98265
 Alpha virt. eigenvalues --    0.98845   0.98928   0.99470   1.00299   1.01048
 Alpha virt. eigenvalues --    1.01452   1.01806   1.02723   1.03072   1.03571
 Alpha virt. eigenvalues --    1.04170   1.04380   1.05717   1.06099   1.06863
 Alpha virt. eigenvalues --    1.07071   1.07930   1.08965   1.09985   1.11734
 Alpha virt. eigenvalues --    1.12773   1.13106   1.13392   1.13911   1.15439
 Alpha virt. eigenvalues --    1.16171   1.16418   1.17088   1.18290   1.18632
 Alpha virt. eigenvalues --    1.19616   1.21836   1.22197   1.23751   1.24320
 Alpha virt. eigenvalues --    1.24636   1.26252   1.26335   1.27143   1.28354
 Alpha virt. eigenvalues --    1.29108   1.30164   1.31333   1.33339   1.33753
 Alpha virt. eigenvalues --    1.34071   1.34925   1.36374   1.37253   1.39317
 Alpha virt. eigenvalues --    1.40702   1.42856   1.43119   1.43362   1.45312
 Alpha virt. eigenvalues --    1.47011   1.48271   1.49577   1.50622   1.51640
 Alpha virt. eigenvalues --    1.52730   1.54457   1.55256   1.55859   1.56775
 Alpha virt. eigenvalues --    1.57897   1.58609   1.59601   1.61112   1.61535
 Alpha virt. eigenvalues --    1.62240   1.63406   1.67037   1.68659   1.69365
 Alpha virt. eigenvalues --    1.70213   1.71207   1.72152   1.72791   1.74085
 Alpha virt. eigenvalues --    1.75200   1.76396   1.76813   1.77793   1.78765
 Alpha virt. eigenvalues --    1.79941   1.80534   1.80882   1.82442   1.83041
 Alpha virt. eigenvalues --    1.83928   1.83956   1.84909   1.85580   1.86282
 Alpha virt. eigenvalues --    1.87203   1.89035   1.89564   1.90809   1.91493
 Alpha virt. eigenvalues --    1.92081   1.93644   1.94982   1.95566   1.96725
 Alpha virt. eigenvalues --    1.97815   1.98508   2.02600   2.03175   2.04942
 Alpha virt. eigenvalues --    2.06187   2.07602   2.10006   2.10410   2.11384
 Alpha virt. eigenvalues --    2.12012   2.12752   2.13595   2.14842   2.15945
 Alpha virt. eigenvalues --    2.17373   2.18023   2.18547   2.19742   2.21194
 Alpha virt. eigenvalues --    2.22373   2.22627   2.26319   2.27577   2.28340
 Alpha virt. eigenvalues --    2.29094   2.30370   2.31531   2.33895   2.35228
 Alpha virt. eigenvalues --    2.36170   2.38006   2.41637   2.43751   2.46867
 Alpha virt. eigenvalues --    2.48853   2.49146   2.49994   2.51822   2.52260
 Alpha virt. eigenvalues --    2.52936   2.53697   2.54210   2.55165   2.55363
 Alpha virt. eigenvalues --    2.56275   2.57157   2.59239   2.59459   2.60687
 Alpha virt. eigenvalues --    2.62412   2.63459   2.65050   2.66100   2.67034
 Alpha virt. eigenvalues --    2.67597   2.68351   2.70080   2.70637   2.71187
 Alpha virt. eigenvalues --    2.71860   2.73178   2.73441   2.73920   2.73958
 Alpha virt. eigenvalues --    2.75686   2.76527   2.78415   2.80146   2.81323
 Alpha virt. eigenvalues --    2.82603   2.84042   2.84652   2.84970   2.85932
 Alpha virt. eigenvalues --    2.86669   2.87358   2.87576   2.89551   2.90486
 Alpha virt. eigenvalues --    2.91372   2.92297   2.93681   2.94302   2.94766
 Alpha virt. eigenvalues --    2.95945   2.96772   2.96812   2.97519   2.98520
 Alpha virt. eigenvalues --    3.01177   3.02997   3.04275   3.09113   3.11831
 Alpha virt. eigenvalues --    3.13977   3.15828   3.18316   3.19369   3.21688
 Alpha virt. eigenvalues --    3.22401   3.24178   3.24954   3.26139   3.26590
 Alpha virt. eigenvalues --    3.27625   3.29797   3.31321   3.34679   3.39664
 Alpha virt. eigenvalues --    3.41666   3.46813   3.48857   3.53819   3.58222
 Alpha virt. eigenvalues --    3.59059   3.60414   3.63063   3.63360   3.63850
 Alpha virt. eigenvalues --    3.64777   3.66739   3.73464   3.80511   3.81085
 Alpha virt. eigenvalues --    3.84071   3.85169   3.86345   3.86561   3.91753
 Alpha virt. eigenvalues --    3.97226   3.97580   3.99374   4.06852   4.09888
 Alpha virt. eigenvalues --    4.24875   4.26576   4.32858   4.36536   4.43803
 Alpha virt. eigenvalues --    4.48131   4.53506   4.58453   4.62531   4.72153
 Alpha virt. eigenvalues --    4.74803   4.83029   4.85962   4.90782   4.98903
 Alpha virt. eigenvalues --    5.06038
          Condensed to atoms (all electrons):
               1          2          3          4          5          6
     1  C    5.170930   0.365345   0.441895  -0.011075  -0.049179   0.313582
     2  C    0.365345   4.901692  -0.051371   0.554771   0.365469  -0.033805
     3  C    0.441895  -0.051371   5.112949  -0.036025   0.008111  -0.036215
     4  C   -0.011075   0.554771  -0.036025   4.998400  -0.051333   0.005490
     5  H   -0.049179   0.365469   0.008111  -0.051333   0.627132  -0.008742
     6  C    0.313582  -0.033805  -0.036215   0.005490  -0.008742   4.344925
     7  C    0.002197  -0.029845   0.400135  -0.033340  -0.000435   0.005852
     8  H   -0.046596   0.007603   0.343545  -0.000528  -0.000102  -0.009219
     9  C   -0.045185  -0.015211  -0.010921   0.364092   0.005820  -0.000081
    10  H    0.004414  -0.033542   0.000205   0.360890  -0.007634  -0.000082
    11  O   -0.105780   0.004878   0.002297   0.000966   0.019589   0.459783
    12  O   -0.099633   0.004395   0.003532  -0.000074   0.000315   0.382435
    13  H    0.004771   0.000463  -0.032856   0.004472   0.000015  -0.000108
    14  O    0.000452  -0.000010   0.001404  -0.038899  -0.000055   0.000001
    15  H   -0.000172   0.000775   0.004681  -0.038373  -0.000127  -0.000002
    16  H   -0.000051  -0.000094  -0.000072   0.006344   0.000006   0.000000
    17  C    0.065537  -0.001334  -0.006094  -0.005957   0.000493  -0.002763
    18  C    0.001527  -0.002906  -0.012612  -0.001507   0.000018  -0.000070
    19  H   -0.001624  -0.000520   0.000711   0.000002   0.000161   0.000514
    20  H   -0.003951   0.000307  -0.004153   0.000109  -0.000008  -0.002816
    21  C   -0.001160   0.001754  -0.000041   0.002027   0.000088  -0.000036
    22  O   -0.010863  -0.001241  -0.031770   0.002187  -0.000016   0.000013
    23  O    0.000023  -0.000109   0.000093   0.001334   0.000000   0.000000
    24  O   -0.000014   0.000009   0.000003  -0.000328  -0.000004   0.000002
    25  O   -0.000720   0.000006  -0.009164  -0.000002   0.000000  -0.000378
    26  H   -0.001468   0.000044   0.002473  -0.000012   0.000000  -0.000026
    27  H   -0.001794  -0.000095   0.000926  -0.000001  -0.000005  -0.000747
    28  O    0.000000   0.000000   0.000000   0.000000   0.000000   0.000000
    29  H    0.000000   0.000000   0.000000   0.000000   0.000000   0.000000
    30  H    0.000000   0.000000   0.000000   0.000000   0.000000   0.000000
    31  O    0.000000   0.000000   0.000000  -0.000006   0.000000   0.000000
    32  H   -0.000001  -0.000003   0.000000   0.000012   0.000000   0.000000
    33  H    0.000000  -0.000004   0.000000   0.000033   0.000000   0.000000
    34  O   -0.000254  -0.000017  -0.003677   0.000024   0.000001  -0.000001
    35  H   -0.000265   0.000572   0.002275  -0.000025   0.000000  -0.000008
    36  H    0.000664   0.000157   0.016273  -0.000528   0.000000  -0.000055
    37  O   -0.000029   0.000003   0.000002   0.000000   0.000003   0.001176
    38  H    0.001215  -0.000037  -0.000017   0.000000  -0.000041   0.003186
    39  H    0.000955  -0.000016  -0.000024   0.000000  -0.000003   0.003560
               7          8          9         10         11         12
     1  C    0.002197  -0.046596  -0.045185   0.004414  -0.105780  -0.099633
     2  C   -0.029845   0.007603  -0.015211  -0.033542   0.004878   0.004395
     3  C    0.400135   0.343545  -0.010921   0.000205   0.002297   0.003532
     4  C   -0.033340  -0.000528   0.364092   0.360890   0.000966  -0.000074
     5  H   -0.000435  -0.000102   0.005820  -0.007634   0.019589   0.000315
     6  C    0.005852  -0.009219  -0.000081  -0.000082   0.459783   0.382435
     7  C    5.097824  -0.051870   0.306415   0.005143  -0.000087   0.000665
     8  H   -0.051870   0.629545   0.005060   0.000013   0.000127   0.009827
     9  C    0.306415   0.005060   4.993968  -0.048014  -0.000018  -0.000011
    10  H    0.005143   0.000013  -0.048014   0.652855   0.000003   0.000000
    11  O   -0.000087   0.000127  -0.000018   0.000003   8.274497  -0.083469
    12  O    0.000665   0.009827  -0.000011   0.000000  -0.083469   8.333359
    13  H    0.361291  -0.007148  -0.048880  -0.000170   0.000001   0.000006
    14  O   -0.037900  -0.000054   0.138220   0.002888   0.000000   0.000000
    15  H   -0.050240  -0.000105   0.345780  -0.003290   0.000000   0.000000
    16  H   -0.000495   0.000005  -0.020740  -0.000213   0.000000   0.000000
    17  C   -0.015165   0.002485  -0.000685  -0.000033  -0.000433  -0.005410
    18  C   -0.016030  -0.000831  -0.001658   0.000004  -0.000002   0.000104
    19  H    0.000164  -0.000015   0.000043  -0.000004   0.000175  -0.000103
[...]
    32  H    6.986377   7.676036   3.100795   2.905597   2.317895
    33  H    7.231458   8.038094   2.673577   2.415674   2.023519
    34  O    5.766087   5.845563   9.222196   8.290184   9.372609
    35  H    5.787722   6.017413   8.436966   7.526771   8.562309
    36  H    4.982047   4.936648   9.024668   8.070640   9.147150
    37  O    5.937917   4.493978  11.510469  10.691527  11.290976
    38  H    5.856344   4.523212  10.939804  10.126788  10.674429
    39  H    5.014415   3.543559  10.926550  10.084014  10.776190
                   31         32         33         34         35
    31  O    0.000000
    32  H    0.987721   0.000000
    33  H    0.972971   1.461369   0.000000
    34  O    8.927380   8.689924   8.095520   0.000000
    35  H    8.094014   7.920098   7.242356   0.975305   0.000000
    36  H    8.663709   8.326956   7.884531   0.967268   1.491670
    37  O   10.333063   9.519972  10.130602   7.721986   7.993481
    38  H    9.610761   8.833836   9.405335   7.233253   7.421899
    39  H    9.960322   9.139229   9.707123   7.161632   7.446563
                   36         37         38         39
    36  H    0.000000
    37  O    6.803402   0.000000
    38  H    6.339638   0.976903   0.000000
    39  H    6.215443   0.976014   1.445574   0.000000
 Symmetry turned off by external request.
 Stoichiometry    C10H18O11(2-)
 Framework group  C1[X(C10H18O11)]
 Deg. of freedom   111
 Full point group                 C1      NOp   1
 Rotational constants (GHZ):      0.3415610      0.1696749      0.1448470
 Leave Link  202 at Wed Feb  6 08:19:03 2019, MaxMem=    33554432 cpu:         1.0
 (Enter /global/apps/Gaussian/09.d01/l301.exe)
 Standard basis: 6-31G(d,p) (6D, 7F)
 Ernie: Thresh=  0.10000D-02 Tol=  0.10000D-05 Strict=F.
   405 basis functions,   714 primitive gaussians,   405 cartesian basis functions
    84 alpha electrons       84 beta electrons
       nuclear repulsion energy      1873.4057273026 Hartrees.
 IExCor=  402 DFT=T Ex+Corr=B3LYP ExCW=0 ScaHFX=  0.200000
 ScaDFX=  0.800000  0.720000  1.000000  0.810000 ScalE2=  1.000000  1.000000
 IRadAn=      0 IRanWt=     -1 IRanGd=            0 ICorTp=0 IEmpDi=  4
 NAtoms=   39 NActive=   39 NUniq=   39 SFac= 1.00D+00 NAtFMM=   60 NAOKFM=F Big=F
 Integral buffers will be    131072 words long.
 Raffenetti 2 integral format.
 Two-electron integral symmetry is turned off.
 Leave Link  301 at Wed Feb  6 08:19:03 2019, MaxMem=    33554432 cpu:         1.5
 (Enter /global/apps/Gaussian/09.d01/linda-exe/../l302.exel)
 NPDir=0 NMtPBC=     1 NCelOv=     1 NCel=       1 NClECP=     1 NCelD=      1
         NCelK=      1 NCelE2=     1 NClLst=     1 CellRange=     0.0.
 One-electron integrals computed using PRISM.
 PrsmSu:  requested number of processors reduced to:   8 ShMem   1 Linda.
 NBasis=   405 RedAO= T EigKep=  8.98D-04  NBF=   405
 NBsUse=   405 1.00D-06 EigRej= -1.00D+00 NBFU=   405
 Precomputing XC quadrature grid using
 IXCGrd= 4 IRadAn=           0 IRanWt=          -1 IRanGd=           0 AccXCQ= 0.00D+00.
 Generated NRdTot=       0 NPtTot=           0 NUsed=           0 NTot=          32
 NSgBfM=   387   390   391   394   394 MxSgAt=    39 MxSgA2=    39.
 Leave Link  302 at Wed Feb  6 08:19:04 2019, MaxMem=    33554432 cpu:        13.1
 (Enter /global/apps/Gaussian/09.d01/l303.exe)
 DipDrv:  MaxL=1.
 Leave Link  303 at Wed Feb  6 08:19:05 2019, MaxMem=    33554432 cpu:         2.3
 (Enter /global/apps/Gaussian/09.d01/linda-exe/../l401.exel)
 Initial guess from the checkpoint file:  "ChorA_frwd.chk"
 B after Tr=     0.000062   -0.000100    0.000080
         Rot=    1.000000    0.000000   -0.000003   -0.000001 Ang=   0.00 deg.
 Guess basis will be translated and rotated to current coordinates.
 JPrj=2 DoOrth=T DoCkMO=T.
 Generating alternative initial guess.
 ExpMin= 1.61D-01 ExpMax= 5.48D+03 ExpMxC= 8.25D+02 IAcc=1 IRadAn=         1 AccDes= 0.00D+00
 Harris functional with IExCor=  402 and IRadAn=       1 diagonalized for initial guess.
 HarFok:  IExCor=  402 AccDes= 0.00D+00 IRadAn=         1 IDoV= 1 UseB2=F ITyADJ=14
 ICtDFT=  3500011 ScaDFX=  1.000000  1.000000  1.000000  1.000000
 FoFCou: FMM=F IPFlag=           0 FMFlag=      100000 FMFlg1=           0
         NFxFlg=           0 DoJE=T BraDBF=F KetDBF=T FulRan=T
         wScrn=  0.000000 ICntrl=     500 IOpCl=  0 I1Cent=   200000004 NGrid=           0
         NMat0=    1 NMatS0=      1 NMatT0=    0 NMatD0=    1 NMtDS0=    0 NMtDT0=    0
 Symmetry not used in FoFCou.
 Harris En= -1219.94640277976    
 Leave Link  401 at Wed Feb  6 08:19:07 2019, MaxMem=    33554432 cpu:        21.0
 (Enter /global/apps/Gaussian/09.d01/linda-exe/../l502.exel)
 Closed shell SCF:
 Using DIIS extrapolation, IDIIS=  1040.
 Two-electron integral symmetry not used.
 IVT=      521233 IEndB=      521233 NGot=    33554432 MDV=    33214270
 LenX=    33214270 LenY=    33049804
 Requested convergence on RMS density matrix=1.00D-08 within 128 cycles.
 Requested convergence on MAX density matrix=1.00D-06.
 Requested convergence on             energy=1.00D-06.
 No special actions if energy rises.
 Fock matrices will be formed incrementally for  20 cycles.
 Integral accuracy reduced to 1.0D-05 until final iterations.

 Cycle   1  Pass 0  IDiag  1:
 FoFJK:  IHMeth= 1 ICntrl=       0 DoSepK=F KAlg= 0 I1Cent=   0 FoldK=F
 IRaf= 700000000 NMat=   1 IRICut=       1 DoRegI=T DoRafI=F ISym2E= 0.
 FoFCou: FMM=F IPFlag=           0 FMFlag=      100000 FMFlg1=           0
         NFxFlg=           0 DoJE=F BraDBF=F KetDBF=F FulRan=T
         wScrn=  0.000000 ICntrl=       0 IOpCl=  0 I1Cent=           0 NGrid=           0
         NMat0=    1 NMatS0=      1 NMatT0=    0 NMatD0=    1 NMtDS0=    0 NMtDT0=    0
 Symmetry not used in FoFCou.
 E= -1219.44289638294    
 DIIS: error= 1.28D-04 at cycle   1 NSaved=   1.
 NSaved= 1 IEnMin= 1 EnMin= -1219.44289638294     IErMin= 1 ErrMin= 1.28D-04
 ErrMax= 1.28D-04  0.00D+00 EMaxC= 1.00D-01 BMatC= 9.97D-06 BMatP= 9.97D-06
 IDIUse=3 WtCom= 9.99D-01 WtEn= 1.28D-03
 Coeff-Com:  0.100D+01
 Coeff-En:   0.100D+01
 Coeff:      0.100D+01
 Gap=     1.646 Goal=   None    Shift=    0.000
 RMSDP=2.18D-05 MaxDP=9.99D-04              OVMax= 8.42D-04

 Cycle   2  Pass 0  IDiag  1:
 RMSU=  2.18D-05    CP:  1.00D+00
 E= -1219.44290892378     Delta-E=       -0.000012540840 Rises=F Damp=F
 DIIS: error= 4.30D-05 at cycle   2 NSaved=   2.
 NSaved= 2 IEnMin= 2 EnMin= -1219.44290892378     IErMin= 2 ErrMin= 4.30D-05
 ErrMax= 4.30D-05  0.00D+00 EMaxC= 1.00D-01 BMatC= 1.94D-06 BMatP= 9.97D-06
 IDIUse=1 WtCom= 1.00D+00 WtEn= 0.00D+00
 Coeff-Com:  0.217D+00 0.783D+00
 Coeff:      0.217D+00 0.783D+00
 Gap=     0.164 Goal=   None    Shift=    0.000
 RMSDP=6.68D-06 MaxDP=5.70D-04 DE=-1.25D-05 OVMax= 5.83D-04

 Initial convergence to 1.0D-05 achieved.  Increase integral accuracy.
 Cycle   3  Pass 1  IDiag  1:
 E= -1219.44299757633     Delta-E=       -0.000088652549 Rises=F Damp=F
 DIIS: error= 3.96D-05 at cycle   1 NSaved=   1.
 NSaved= 1 IEnMin= 1 EnMin= -1219.44299757633     IErMin= 1 ErrMin= 3.96D-05
 ErrMax= 3.96D-05  0.00D+00 EMaxC= 1.00D-01 BMatC= 2.57D-06 BMatP= 2.57D-06
 IDIUse=1 WtCom= 1.00D+00 WtEn= 0.00D+00
 Coeff-Com:  0.100D+01
 Coeff:      0.100D+01
 Gap=     0.164 Goal=   None    Shift=    0.000
 RMSDP=6.68D-06 MaxDP=5.70D-04 DE=-8.87D-05 OVMax= 8.04D-04

 Cycle   4  Pass 1  IDiag  1:
 RMSU=  1.45D-05    CP:  1.00D+00
 E= -1219.44299338438     Delta-E=        0.000004191952 Rises=F Damp=F
 DIIS: error= 7.51D-05 at cycle   2 NSaved=   2.
 NSaved= 2 IEnMin= 1 EnMin= -1219.44299757633     IErMin= 1 ErrMin= 3.96D-05
 ErrMax= 7.51D-05  0.00D+00 EMaxC= 1.00D-01 BMatC= 7.26D-06 BMatP= 2.57D-06
 IDIUse=1 WtCom= 1.00D+00 WtEn= 0.00D+00
 Coeff-Com:  0.638D+00 0.362D+00
 Coeff:      0.638D+00 0.362D+00
 Gap=     0.164 Goal=   None    Shift=    0.000
 RMSDP=7.08D-06 MaxDP=4.06D-04 DE= 4.19D-06 OVMax= 6.22D-04

 Cycle   5  Pass 1  IDiag  1:
 RMSU=  5.87D-06    CP:  1.00D+00  7.27D-01
 E= -1219.44299977967     Delta-E=       -0.000006395297 Rises=F Damp=F
 DIIS: error= 1.64D-05 at cycle   3 NSaved=   3.
 NSaved= 3 IEnMin= 3 EnMin= -1219.44299977967     IErMin= 3 ErrMin= 1.64D-05
 ErrMax= 1.64D-05  0.00D+00 EMaxC= 1.00D-01 BMatC= 3.80D-07 BMatP= 2.57D-06
 IDIUse=1 WtCom= 1.00D+00 WtEn= 0.00D+00
 Coeff-Com:  0.249D+00 0.211D+00 0.540D+00
 Coeff:      0.249D+00 0.211D+00 0.540D+00
 Gap=     0.164 Goal=   None    Shift=    0.000
 RMSDP=1.73D-06 MaxDP=1.17D-04 DE=-6.40D-06 OVMax= 1.62D-04

 Cycle   6  Pass 1  IDiag  1:
 RMSU=  1.50D-06    CP:  1.00D+00  7.49D-01  8.61D-01
 E= -1219.44300003658     Delta-E=       -0.000000256903 Rises=F Damp=F
 DIIS: error= 9.43D-06 at cycle   4 NSaved=   4.
 NSaved= 4 IEnMin= 4 EnMin= -1219.44300003658     IErMin= 4 ErrMin= 9.43D-06
 ErrMax= 9.43D-06  0.00D+00 EMaxC= 1.00D-01 BMatC= 7.50D-08 BMatP= 3.80D-07
 IDIUse=1 WtCom= 1.00D+00 WtEn= 0.00D+00
 Coeff-Com: -0.448D-02 0.457D-01 0.346D+00 0.613D+00
 Coeff:     -0.448D-02 0.457D-01 0.346D+00 0.613D+00
 Gap=     0.164 Goal=   None    Shift=    0.000
 RMSDP=6.85D-07 MaxDP=4.04D-05 DE=-2.57D-07 OVMax= 7.98D-05

 Cycle   7  Pass 1  IDiag  1:
 RMSU=  3.03D-07    CP:  1.00D+00  7.60D-01  8.84D-01  6.15D-01
 E= -1219.44300009535     Delta-E=       -0.000000058777 Rises=F Damp=F
 DIIS: error= 4.76D-06 at cycle   5 NSaved=   5.
 NSaved= 5 IEnMin= 5 EnMin= -1219.44300009535     IErMin= 5 ErrMin= 4.76D-06
 ErrMax= 4.76D-06  0.00D+00 EMaxC= 1.00D-01 BMatC= 8.39D-09 BMatP= 7.50D-08
 IDIUse=1 WtCom= 1.00D+00 WtEn= 0.00D+00
 Coeff-Com: -0.984D-02 0.263D-01 0.228D+00 0.429D+00 0.326D+00
 Coeff:     -0.984D-02 0.263D-01 0.228D+00 0.429D+00 0.326D+00
 Gap=     0.164 Goal=   None    Shift=    0.000
 RMSDP=1.92D-07 MaxDP=1.63D-05 DE=-5.88D-08 OVMax= 3.35D-05

 Cycle   8  Pass 1  IDiag  1:
 RMSU=  9.66D-08    CP:  1.00D+00  7.61D-01  8.84D-01  6.27D-01  4.57D-01
 E= -1219.44300010195     Delta-E=       -0.000000006594 Rises=F Damp=F
 DIIS: error= 4.07D-07 at cycle   6 NSaved=   6.
 NSaved= 6 IEnMin= 6 EnMin= -1219.44300010195     IErMin= 6 ErrMin= 4.07D-07
 ErrMax= 4.07D-07  0.00D+00 EMaxC= 1.00D-01 BMatC= 1.08D-10 BMatP= 8.39D-09
 IDIUse=1 WtCom= 1.00D+00 WtEn= 0.00D+00
 Coeff-Com: -0.421D-02 0.919D-02 0.848D-01 0.159D+00 0.152D+00 0.599D+00
 Coeff:     -0.421D-02 0.919D-02 0.848D-01 0.159D+00 0.152D+00 0.599D+00
 Gap=     0.164 Goal=   None    Shift=    0.000
 RMSDP=3.42D-08 MaxDP=1.62D-06 DE=-6.59D-09 OVMax= 2.94D-06

 Cycle   9  Pass 1  IDiag  1:
 RMSU=  2.93D-08    CP:  1.00D+00  7.61D-01  8.85D-01  6.29D-01  4.81D-01
                    CP:  8.43D-01
 E= -1219.44300010204     Delta-E=       -0.000000000089 Rises=F Damp=F
 DIIS: error= 1.80D-07 at cycle   7 NSaved=   7.
 NSaved= 7 IEnMin= 7 EnMin= -1219.44300010204     IErMin= 7 ErrMin= 1.80D-07
 ErrMax= 1.80D-07  0.00D+00 EMaxC= 1.00D-01 BMatC= 1.99D-11 BMatP= 1.08D-10
 IDIUse=1 WtCom= 1.00D+00 WtEn= 0.00D+00
 Coeff-Com: -0.793D-03 0.887D-03 0.115D-01 0.204D-01 0.302D-01 0.322D+00
 Coeff-Com:  0.615D+00
 Coeff:     -0.793D-03 0.887D-03 0.115D-01 0.204D-01 0.302D-01 0.322D+00
 Coeff:      0.615D+00
 Gap=     0.164 Goal=   None    Shift=    0.000
 RMSDP=1.27D-08 MaxDP=6.19D-07 DE=-8.91D-11 OVMax= 1.24D-06

 Cycle  10  Pass 1  IDiag  1:
 RMSU=  1.03D-08    CP:  1.00D+00  7.61D-01  8.85D-01  6.29D-01  4.87D-01
                    CP:  8.97D-01  8.45D-01
 E= -1219.44300010209     Delta-E=       -0.000000000053 Rises=F Damp=F
 DIIS: error= 5.88D-08 at cycle   8 NSaved=   8.
 NSaved= 8 IEnMin= 8 EnMin= -1219.44300010209     IErMin= 8 ErrMin= 5.88D-08
 ErrMax= 5.88D-08  0.00D+00 EMaxC= 1.00D-01 BMatC= 3.20D-12 BMatP= 1.99D-11
 IDIUse=1 WtCom= 1.00D+00 WtEn= 0.00D+00
 Coeff-Com:  0.110D-04-0.555D-03-0.293D-02-0.624D-02-0.214D-03 0.124D+00
 Coeff-Com:  0.361D+00 0.525D+00
 Coeff:      0.110D-04-0.555D-03-0.293D-02-0.624D-02-0.214D-03 0.124D+00
 Coeff:      0.361D+00 0.525D+00
 Gap=     0.164 Goal=   None    Shift=    0.000
 RMSDP=5.59D-09 MaxDP=2.66D-07 DE=-5.32D-11 OVMax= 6.25D-07

 SCF Done:  E(RB3LYP) =  -1219.44300010     A.U. after   10 cycles
            NFock= 10  Conv=0.56D-08     -V/T= 2.0085
 KE= 1.209131328178D+03 PE=-6.649465519594D+03 EE= 2.347485464012D+03
 Leave Link  502 at Wed Feb  6 08:19:17 2019, MaxMem=    33554432 cpu:       181.3
 (Enter /global/apps/Gaussian/09.d01/l801.exe)
 DoSCS=F DFT=T ScalE2(SS,OS)=  1.000000  1.000000
 Range of M.O.s used for correlation:     1   405
 NBasis=   405 NAE=    84 NBE=    84 NFC=     0 NFV=     0
 NROrb=    405 NOA=    84 NOB=    84 NVA=   321 NVB=   321
 Leave Link  801 at Wed Feb  6 08:19:17 2019, MaxMem=    33554432 cpu:         0.6
 (Enter /global/apps/Gaussian/09.d01/linda-exe/../l1101.exel)
 Leave Link 1101 at Wed Feb  6 08:19:18 2019, MaxMem=    33554432 cpu:         0.5
 (Enter /global/apps/Gaussian/09.d01/l1102.exe)
 Symmetrizing basis deriv contribution to polar:
 IMax=3 JMax=2 DiffMx= 0.00D+00
 Leave Link 1102 at Wed Feb  6 08:19:18 2019, MaxMem=    33554432 cpu:         1.8
 (Enter /global/apps/Gaussian/09.d01/linda-exe/../l1110.exel)
 Leave Link 1110 at Wed Feb  6 08:19:19 2019, MaxMem=    33554432 cpu:         0.4
 (Enter /global/apps/Gaussian/09.d01/linda-exe/../l1002.exel)
 Minotr:  Closed shell wavefunction.
 Leave Link 1002 at Wed Feb  6 08:19:20 2019, MaxMem=    33554432 cpu:         0.4
 (Enter /global/apps/Gaussian/09.d01/linda-exe/../l701.exel)
 Compute integral first derivatives.
 ... and contract with generalized density number  0.
 PrsmSu:  requested number of processors reduced to:   9 ShMem   1 Linda.
 PrsmSu:  requested number of processors reduced to:  14 ShMem   4 Linda.
 Leave Link  701 at Wed Feb  6 08:19:21 2019, MaxMem=    33554432 cpu:         6.7
 (Enter /global/apps/Gaussian/09.d01/l702.exe)
 L702 exits ... SP integral derivatives will be done elsewhere.
 Leave Link  702 at Wed Feb  6 08:19:21 2019, MaxMem=    33554432 cpu:         0.4
 (Enter /global/apps/Gaussian/09.d01/linda-exe/../l703.exel)
 Compute integral first derivatives, UseDBF=F ICtDFT=           0.
 Integral derivatives from FoFJK, PRISM(SPDF).
 Calling FoFJK, ICntrl=      2147 FMM=F ISym2X=0 I1Cent= 0 IOpClX= 0 NMat=1 NMatS=1 NMatT=0.
 FoFJK:  IHMeth= 1 ICntrl=    2147 DoSepK=F KAlg= 0 I1Cent=   0 FoldK=F
 IRaf=         0 NMat=   1 IRICut=       1 DoRegI=T DoRafI=F ISym2E= 0.
 FoFCou: FMM=F IPFlag=           0 FMFlag=      100000 FMFlg1=         800
         NFxFlg=           0 DoJE=F BraDBF=F KetDBF=F FulRan=T
         wScrn=  0.000000 ICntrl=    2147 IOpCl=  0 I1Cent=           0 NGrid=           0
         NMat0=    1 NMatS0=      1 NMatT0=    0 NMatD0=    1 NMtDS0=    0 NMtDT0=    0
 Symmetry not used in FoFCou.
 CoulSu:  requested number of processors reduced to:  14 ShMem   4 Linda.
 CalDSu:  requested number of processors reduced to:  19 ShMem   4 Linda.
 Leave Link  703 at Wed Feb  6 08:19:24 2019, MaxMem=    33554432 cpu:        28.1
 (Enter /global/apps/Gaussian/09.d01/l716.exe)
 Dipole        = 8.38721177D-01 2.13307231D+00-8.68090907D-02
 Polarizability= 0.00000000D+00 0.00000000D+00 0.00000000D+00
                 0.00000000D+00 0.00000000D+00 0.00000000D+00
 -------------------------------------------------------------------
 Center     Atomic                   Forces (Hartrees/Bohr)
 Number     Number              X              Y              Z
 -------------------------------------------------------------------
      1        6           0.003586043   -0.003926156    0.002655727
      2        6           0.002463336   -0.003196863    0.002009998
      3        6           0.001105768   -0.002024035    0.001444814
      4        6          -0.002016923    0.000587586    0.000378431
      5        1           0.000278178   -0.000385980    0.000227383
      6        6           0.001990732   -0.001597129    0.001422481
      7        6          -0.005563433    0.004750291   -0.003135966
      8        1           0.000045598   -0.000215569    0.000056989
      9        6          -0.002913063    0.002540831   -0.000450165
     10        1          -0.000416345    0.000300954   -0.000151478
     11        8           0.002806648    0.001467075    0.001430002
     12        8           0.000726001   -0.000635600    0.000867563
     13        1          -0.001027372    0.000998884   -0.000524357
     14        8           0.001619222    0.001689770   -0.003225435
     15        1          -0.000371898    0.000077904    0.000202748
     16        1          -0.000043043    0.000128394   -0.000125881
     17        6          -0.004237097    0.007833763   -0.004908280
     18        6          -0.000776336    0.002442697   -0.002288087
     19        1          -0.000195233    0.000950861   -0.000734969
     20        1           0.000899375    0.001323080   -0.002342193
     21        6          -0.000670422   -0.000269292   -0.000449021
     22        8           0.004182888   -0.011593627    0.006860410
     23        8           0.000352515   -0.001418193    0.000329077
     24        8          -0.001952981   -0.001219584    0.000886697
     25        8          -0.000727926   -0.001245218    0.000846880
     26        1          -0.000013121   -0.000204342    0.000102687
     27        1           0.000016421   -0.000152622    0.000052824
     28        8           0.000675339   -0.000103378    0.000105694
     29        1           0.000036636   -0.000043773    0.000044152
     30        1           0.000035397    0.000003069    0.000003896
     31        8           0.000071178   -0.000374601    0.000079105
     32        1           0.000049574   -0.000088700   -0.000003355
     33        1          -0.000046723   -0.000051860    0.000033205
     34        8          -0.000314086    0.002648098   -0.001146505
     35        1          -0.000046303    0.000280472   -0.000203509
     36        1           0.000063455    0.000132932   -0.000120230
     37        8           0.000332705    0.000460115   -0.000198046
     38        1          -0.000013337    0.000081856   -0.000020890
     39        1           0.000008637    0.000047888   -0.000012397
 -------------------------------------------------------------------
 Cartesian Forces:  Max     0.011593627 RMS     0.002133800
 Z-matrix is all fixed cartesians, so copy forces.
 Leave Link  716 at Wed Feb  6 08:19:24 2019, MaxMem=    33554432 cpu:         0.6
 (Enter /global/apps/Gaussian/09.d01/l123.exe)
 IRC-IRC-IRC-IRC-IRC-IRC-IRC-IRC-IRC-IRC-IRC-IRC-IRC-IRC-IRC-IRC-IRC-IRC
 Error in corrector energy =          -0.0000263905
 Magnitude of corrector gradient =     0.0239878983
 Magnitude of analytic gradient =      0.0230805793
 Magnitude of difference =             0.0036931911
 Angle between gradients (degrees)=    8.7258
 Pt 22 Step number  20 out of a maximum of  20
 Using modified Bulirsch-Stoer corrector integration.
   Using distance weighted interpolants to fit PES.
 PreDWI: IReCr0= 2 IReCr1= 1 IReCr2= 1 IReCr3= 1
 Modified Bulirsch-Stoer Extrapolation Cycles:
    EPS =    0.000010000000000
    Cycle     1 NS=    48
    Cycle     2 NS=    64 Truncation Error =  0.000205862
    Cycle     3 NS=    96 Truncation Error =  0.000000435
 BS completed in    3 cycles and     208 integration steps.
 Maximum DWI energy   std dev =  0.000011167 at pt    33
 Maximum DWI gradient std dev =  0.050428542 at pt    59
 SUMMARY OF CORRECTOR INTEGRATION:
   Predictor End Point Energy = -1219.442993
   Old End Point Energy       = -1219.443000
   Corrected End Point Energy = -1219.443029
   Predictor End-Start Dist.  =     0.271778
   Old End-Start Dist.        =     0.271106
   New End-Start Dist.        =     0.270846
   New End-Old End Dist.      =     0.023138
 CORRECTOR INTEGRATION CONVERGENCE:
   Recorrection delta-x convergence threshold:    0.010000
   Delta-x Convergence NOT Met
 Maximum number of corrector steps exceded.
 Error termination via Lnk1e in /global/apps/Gaussian/09.d01/l123.exe at Wed Feb  6 08:19:25 2019.
 Job cpu time:       0 days  0 hours 32 minutes 24.9 seconds.
 File lengths (MBytes):  RWF=    683 Int=      0 D2E=      0 Chk=     16 Scr=      1
