 Entering Gaussian System, Link 0=g09
 Initial command:
 /global/apps/Gaussian/09.d01/l1.exe "/global/work/gvi022/1443072/Gau-44780.inp" -scrdir="/global/work/gvi022/1443072/"
 Entering Link 1 = /global/apps/Gaussian/09.d01/l1.exe PID=     44781.
  
 Copyright (c) 1988,1990,1992,1993,1995,1998,2003,2009,2013,
            Gaussian, Inc.  All Rights Reserved.
  
 This is part of the Gaussian(R) 09 program.  It is based on
 the Gaussian(R) 03 system (copyright 2003, Gaussian, Inc.),
 the Gaussian(R) 98 system (copyright 1998, Gaussian, Inc.),
 the Gaussian(R) 94 system (copyright 1995, Gaussian, Inc.),
 the Gaussian 92(TM) system (copyright 1992, Gaussian, Inc.),
 the Gaussian 90(TM) system (copyright 1990, Gaussian, Inc.),
 the Gaussian 88(TM) system (copyright 1988, Gaussian, Inc.),
 the Gaussian 86(TM) system (copyright 1986, Carnegie Mellon
 University), and the Gaussian 82(TM) system (copyright 1983,
 Carnegie Mellon University). Gaussian is a federally registered
 trademark of Gaussian, Inc.
  
 This software contains proprietary and confidential information,
 including trade secrets, belonging to Gaussian, Inc.
  
 This software is provided under written license and may be
 used, copied, transmitted, or stored only in accord with that
 written license.
  
 The following legend is applicable only to US Government
 contracts under FAR:
  
                    RESTRICTED RIGHTS LEGEND
  
 Use, reproduction and disclosure by the US Government is
 subject to restrictions as set forth in subparagraphs (a)
 and (c) of the Commercial Computer Software - Restricted
 Rights clause in FAR 52.227-19.
  
 Gaussian, Inc.
 340 Quinnipiac St., Bldg. 40, Wallingford CT 06492
  
  
 ---------------------------------------------------------------
 Warning -- This program may not be used in any manner that
 competes with the business of Gaussian, Inc. or will provide
 assistance to any competitor of Gaussian, Inc.  The licensee
 of this program is prohibited from giving any competitor of
 Gaussian, Inc. access to this program.  By using this program,
 the user acknowledges that Gaussian, Inc. is engaged in the
 business of creating and licensing software in the field of
 computational chemistry and represents and warrants to the
 licensee that it is not a competitor of Gaussian, Inc. and that
 it will not use this program in any manner prohibited above.
 ---------------------------------------------------------------
  

 Cite this work as:
 Gaussian 09, Revision D.01,
 M. J. Frisch, G. W. Trucks, H. B. Schlegel, G. E. Scuseria, 
 M. A. Robb, J. R. Cheeseman, G. Scalmani, V. Barone, B. Mennucci, 
 G. A. Petersson, H. Nakatsuji, M. Caricato, X. Li, H. P. Hratchian, 
 A. F. Izmaylov, J. Bloino, G. Zheng, J. L. Sonnenberg, M. Hada, 
 M. Ehara, K. Toyota, R. Fukuda, J. Hasegawa, M. Ishida, T. Nakajima, 
 Y. Honda, O. Kitao, H. Nakai, T. Vreven, J. A. Montgomery, Jr., 
 J. E. Peralta, F. Ogliaro, M. Bearpark, J. J. Heyd, E. Brothers, 
 K. N. Kudin, V. N. Staroverov, T. Keith, R. Kobayashi, J. Normand, 
 K. Raghavachari, A. Rendell, J. C. Burant, S. S. Iyengar, J. Tomasi, 
 M. Cossi, N. Rega, J. M. Millam, M. Klene, J. E. Knox, J. B. Cross, 
 V. Bakken, C. Adamo, J. Jaramillo, R. Gomperts, R. E. Stratmann, 
 O. Yazyev, A. J. Austin, R. Cammi, C. Pomelli, J. W. Ochterski, 
 R. L. Martin, K. Morokuma, V. G. Zakrzewski, G. A. Voth, 
 P. Salvador, J. J. Dannenberg, S. Dapprich, A. D. Daniels, 
 O. Farkas, J. B. Foresman, J. V. Ortiz, J. Cioslowski, 
 and D. J. Fox, Gaussian, Inc., Wallingford CT, 2013.
 
 ******************************************
 Gaussian 09:  EM64L-G09RevD.01 24-Apr-2013
                 6-Feb-2019 
 ******************************************
 %LindaWorkers=cib48-1,cib48-3,cib48-7,cib49-3
 %NProcShared=20
 Will use up to   20 processors via shared memory.
 %chk=ChorA_solv.chk
 SetLPE:  input flags=""
 SetLPE:    new flags=" -nodelist 'cib48-1.ibnet cib48-3.ibnet cib48-7.ibnet cib49-3.ibnet'"
 Will use up to    4 processors via Linda.
 ----------------------------------------------------------------------
 # rb3lyp/6-31g(d,p) scrf=(iefpcm,solvent=water) geom=connectivity empi
 ricaldispersion=gd3
 ----------------------------------------------------------------------
 1/38=1,57=2/1;
 2/12=2,17=6,18=5,40=1/2;
 3/5=1,6=6,7=101,11=2,16=1,25=1,30=1,70=2201,72=1,74=-5,116=1,124=31/1,2,3;
 4//1;
 5/5=2,38=5,53=1/2;
 6/7=2,8=2,9=2,10=2,28=1/1;
 99/5=1,9=1/99;
 -------------------
 Title Card Required
 -------------------
 Symbolic Z-matrix:
 Charge = -2 Multiplicity = 1
 C                    -1.52023   0.12686  -0.46301 
 C                    -0.64066   0.34421  -1.61169 
 C                    -1.40379   0.98643   0.6277 
 C                     0.37742   1.21984  -1.56866 
 H                    -0.87394  -0.23013  -2.50164 
 C                    -2.77279  -0.74419  -0.60325 
 C                    -0.20834   1.66386   0.83012 
 H                    -2.13177   0.92638   1.42593 
 C                     0.75315   1.93357  -0.30803 
 H                     1.01994   1.39131  -2.42733 
 O                    -3.08537  -1.0817   -1.77222 
 O                    -3.38223  -1.02347   0.47572 
 H                    -0.0921    2.3057    1.69803 
 O                     0.80626   3.37466  -0.59544 
 H                     1.75491   1.59741  -0.00299 
 H                     1.33878   3.76576   0.11063 
 C                    -0.11866  -1.77564   0.61255 
 C                     0.90953  -0.90064   0.92218 
 H                     0.05564  -2.54232  -0.13185 
 H                    -1.01562  -1.83082   1.20985 
 C                     2.2512   -1.01156   0.14468 
 O                     0.75241   0.06276   1.7727 
 O                     3.03336  -0.01244   0.19212 
 O                     2.45572  -2.10395  -0.44824 
 O                    -2.22311  -0.80301   3.10363 
 H                    -1.32075  -0.5463    2.85851 
 H                    -2.66683  -0.91002   2.23404 
 O                     5.72829  -0.75248   0.9261 
 H                     4.81515  -0.41068   0.96772 
 H                     5.67768  -1.19166   0.05743 
 O                     4.75936  -1.37351  -1.71937 
 H                     3.99186  -1.88052  -1.34966 
 H                     4.46558  -0.5017   -1.40339 
 O                    -1.8352    4.29764  -0.02906 
 H                    -0.94256   4.08744  -0.36253 
 H                    -2.21127   3.41215   0.06951 
 O                    -5.48343  -2.38119  -0.93714 
 H                    -4.80173  -2.06766  -1.56267 
 H                    -5.03246  -2.05732  -0.13541 
 
                          Input orientation:                          
 ---------------------------------------------------------------------
 Center     Atomic      Atomic             Coordinates (Angstroms)
 Number     Number       Type             X           Y           Z
 ---------------------------------------------------------------------
      1          6           0       -1.520228    0.126858   -0.463007
      2          6           0       -0.640656    0.344212   -1.611685
      3          6           0       -1.403791    0.986427    0.627699
      4          6           0        0.377422    1.219842   -1.568663
      5          1           0       -0.873935   -0.230128   -2.501640
      6          6           0       -2.772787   -0.744189   -0.603246
      7          6           0       -0.208342    1.663855    0.830122
      8          1           0       -2.131771    0.926375    1.425930
      9          6           0        0.753154    1.933570   -0.308025
     10          1           0        1.019939    1.391314   -2.427327
     11          8           0       -3.085375   -1.081702   -1.772223
     12          8           0       -3.382225   -1.023472    0.475721
     13          1           0       -0.092096    2.305696    1.698032
     14          8           0        0.806257    3.374662   -0.595444
     15          1           0        1.754914    1.597413   -0.002994
     16          1           0        1.338784    3.765761    0.110625
     17          6           0       -0.118664   -1.775643    0.612545
     18          6           0        0.909528   -0.900635    0.922181
     19          1           0        0.055638   -2.542318   -0.131849
     20          1           0       -1.015616   -1.830824    1.209850
     21          6           0        2.251202   -1.011558    0.144676
     22          8           0        0.752408    0.062763    1.772695
     23          8           0        3.033365   -0.012439    0.192116
     24          8           0        2.455722   -2.103946   -0.448240
     25          8           0       -2.223109   -0.803006    3.103632
     26          1           0       -1.320751   -0.546298    2.858507
     27          1           0       -2.666826   -0.910019    2.234036
     28          8           0        5.728288   -0.752478    0.926100
     29          1           0        4.815148   -0.410675    0.967722
     30          1           0        5.677680   -1.191657    0.057428
     31          8           0        4.759356   -1.373514   -1.719368
     32          1           0        3.991859   -1.880516   -1.349664
     33          1           0        4.465578   -0.501696   -1.403386
     34          8           0       -1.835198    4.297637   -0.029063
     35          1           0       -0.942558    4.087440   -0.362533
     36          1           0       -2.211265    3.412153    0.069506
     37          8           0       -5.483434   -2.381190   -0.937142
     38          1           0       -4.801727   -2.067657   -1.562673
     39          1           0       -5.032462   -2.057321   -0.135405
 ---------------------------------------------------------------------
                    Distance matrix (angstroms):
                    1          2          3          4          5
     1  C    0.000000
     2  C    1.462994   0.000000
     3  C    1.393577   2.451460   0.000000
     4  C    2.453195   1.343526   2.837465   0.000000
     5  H    2.168215   1.084576   3.399046   2.130435   0.000000
     6  C    1.532088   2.597604   2.526738   3.835787   2.733825
     7  C    2.399081   2.809052   1.388878   2.508872   3.889836
     8  H    2.140396   3.433576   1.082005   3.917877   4.283160
     9  C    2.908005   2.483605   2.534772   1.496593   3.484387
    10  H    3.451065   2.125858   3.920661   1.086064   2.494264
    11  O    2.371571   2.834723   3.586713   4.162872   2.479454
    12  O    2.381492   3.707293   2.824357   4.831864   3.973109
    13  H    3.384817   3.886202   2.146305   3.474309   4.967788
    14  O    3.997287   3.508551   3.476213   2.402978   4.410345
    15  H    3.619489   3.145974   3.278490   2.119284   4.061279
    16  H    4.663113   4.311790   3.938754   3.197801   5.261861
    17  C    2.596287   3.116642   3.046442   3.738543   3.557696
    18  C    2.979631   3.220744   2.999861   3.314191   3.918274
    19  H    3.117294   3.317649   3.893442   4.040028   3.438930
    20  H    2.624043   3.582239   2.902840   4.355141   4.044436
    21  C    3.986095   3.644964   4.193355   3.380196   4.168945
    22  O    3.188628   3.670677   2.610242   3.555857   4.582654
    23  O    4.602586   4.108446   4.569006   3.416561   4.750863
    24  O    4.559044   4.115172   5.060029   4.077039   4.337541
    25  O    3.752280   5.104359   3.162846   5.717081   5.793750
    26  H    3.394906   4.608487   2.707886   5.059928   5.388022
    27  H    3.108672   4.524161   2.787846   5.316415   5.109143
    28  O    7.432620   6.943092   7.347066   6.224601   7.457319
    29  H    6.517125   6.081858   6.383002   5.365188   6.665938
    30  H    7.336158   6.713136   7.430780   6.045844   7.099086
    31  O    6.577441   5.667655   7.004458   5.094070   5.801142
    32  H    5.932859   5.145704   6.422022   4.767005   5.265623
    33  H    6.091738   5.180017   6.386651   4.438922   5.458050
    34  O    4.205105   4.422804   3.403169   4.091317   5.247697
    35  H    4.003749   3.957686   3.287792   3.379381   4.818909
    36  H    3.399157   3.834772   2.616819   3.767111   4.654616
    37  O    4.714033   5.597796   5.516617   6.907668   5.321861
    38  H    4.097975   4.809784   5.066668   6.134433   4.436859
    39  H    4.148945   5.218690   4.797289   6.485435   5.121626
                    6          7          8          9         10
     6  C    0.000000
     7  C    3.798631   0.000000
     8  H    2.705410   2.144398   0.000000
     9  C    4.437320   1.514133   3.513379   0.000000
    10  H    4.719366   3.491980   4.999703   2.203782   0.000000
    11  O    1.256238   4.752642   3.894858   5.096081   4.837207
    12  O    1.270269   4.173830   2.503684   5.143901   5.799821
    13  H    4.667310   1.085698   2.477265   2.208436   4.369360
    14  O    5.456606   2.447143   4.325745   1.470434   2.708344
    15  H    5.132590   2.133746   4.195049   1.099804   2.541664
    16  H    6.144451   2.707265   4.672996   1.968541   3.490109
    17  C    3.096193   3.447539   3.466280   3.919921   4.535069
    18  C    3.988840   2.799056   3.583466   3.093635   4.060102
    19  H    3.384593   4.322842   4.386715   4.533337   4.655379
    20  H    2.748771   3.606753   2.982388   4.427545   5.268274
    21  C    5.086388   3.698247   4.960610   3.335096   3.728941
    22  O    4.327039   2.091645   3.030604   2.798091   4.413253
    23  O    5.905883   3.704818   5.392801   3.039154   3.589692
    24  O    5.404653   4.788295   5.808653   4.384054   4.265572
    25  O    3.747873   3.913251   2.411179   5.290217   6.776718
    26  H    3.759163   3.199465   2.208800   4.525235   6.096984
    27  H    2.844099   3.826218   2.076454   5.122923   6.373121
    28  O    8.637548   6.410262   8.052882   5.787044   6.165214
    29  H    7.756025   5.436732   7.089241   4.860330   5.401586
    30  H    8.488057   6.587584   8.206484   5.843933   5.877099
    31  O    7.640351   6.356377   7.916440   5.383154   4.704117
    32  H    6.899914   5.912336   7.285699   5.110917   4.549565
    33  H    7.286491   5.614597   7.319114   4.573011   4.062557
    34  O    5.160307   3.212735   3.683798   3.516561   4.727599
    35  H    5.172264   2.799154   3.821670   2.741818   3.922227
    36  H    4.247715   2.765282   2.832896   3.334144   4.556166
    37  O    3.184159   6.878387   5.268562   7.609729   7.664613
    38  H    2.605507   6.383481   5.002463   6.959933   6.826705
    39  H    2.655056   6.168592   4.444572   7.030673   7.333318
                   11         12         13         14         15
    11  O    0.000000
    12  O    2.268207   0.000000
    13  H    5.698847   4.837598   0.000000
    14  O    6.032312   6.167200   2.685099   0.000000
    15  H    5.808289   5.786917   2.608946   2.099896   0.000000
    16  H    6.827606   6.734833   2.588256   0.966994   2.210838
    17  C    3.869114   3.351912   4.223306   5.370322   3.907261
    18  C    4.822017   4.316661   3.447572   4.537843   2.794793
    19  H    3.832778   3.807222   5.183969   5.982391   4.476775
    20  H    3.706460   2.606070   4.266381   5.803050   4.571612
    21  C    5.670844   5.643158   4.348348   4.677026   2.659857
    22  O    5.348348   4.467352   2.397814   4.071812   2.552105
    23  O    6.514670   6.500955   4.172534   4.129493   2.064977
    24  O    5.788063   6.008557   5.526554   5.723421   3.793341
    25  O    4.959348   2.880637   4.022556   6.349262   5.589079
    26  H    4.984397   3.186697   3.315142   5.641619   4.716291
    27  H    4.031720   1.901667   4.154198   6.198932   5.553675
    28  O    9.223339   9.125663   6.620059   6.601119   4.708811
    29  H    8.389031   8.234957   5.656241   5.730922   3.786785
    30  H    8.952700   9.071115   6.943585   6.708821   4.813591
    31  O    7.850335   8.439567   6.982249   6.279759   4.560594
    32  H    7.134697   7.644846   6.594809   6.191430   4.348958
    33  H    7.582172   8.086489   6.186488   5.391619   3.703384
    34  O    5.791273   5.564378   3.160552   2.854813   4.492304
    35  H    5.770522   5.725039   2.853739   1.902802   3.688612
    36  H    4.934650   4.605532   2.892615   3.090146   4.362237
    37  O    2.852493   2.873092   7.614300   8.532690   8.312376
    38  H    1.990448   2.694505   7.206874   7.874253   7.671693
    39  H    2.724363   2.040980   6.841391   7.988036   7.709934
                   16         17         18         19         20
    16  H    0.000000
    17  C    5.751803   0.000000
    18  C    4.755853   1.385169   0.000000
    19  H    6.441826   1.082725   2.129608   0.000000
    20  H    6.170353   1.079046   2.157356   1.858485   0.000000
    21  C    4.863789   2.533573   1.554640   2.690761   3.532406
    22  O    4.101037   2.341890   1.294680   3.301397   2.651108
    23  O    4.141623   3.636060   2.415072   3.920727   4.553741
    24  O    6.001112   2.803660   2.390968   2.460219   3.856688
    25  O    6.520644   3.402973   3.818596   4.322757   2.469992
    26  H    5.763492   2.828542   2.974737   3.849776   2.112152
    27  H    6.512811   3.141921   3.809378   3.958993   2.150194
    28  O    6.351947   5.944075   4.821039   6.041667   6.835465
    29  H    5.501122   5.131451   3.936496   5.329718   6.006102
    30  H    6.588235   5.852076   4.854664   5.785107   6.821790
    31  O    6.439048   5.421679   4.692821   5.100126   6.491514
    32  H    6.407160   4.556058   3.952494   4.173115   5.623912
    33  H    5.502750   5.167417   4.267658   5.022800   6.216033
    34  O    3.221268   6.343728   5.954865   7.097240   6.305922
    35  H    2.351994   6.000443   5.473719   6.708450   6.124016
    36  H    3.567853   5.620240   5.391340   6.374568   5.497160
    37  O    9.242591   5.616847   6.820490   5.599623   4.987372
    38  H    8.633340   5.171840   6.336787   5.085917   4.698682
    39  H    8.634905   4.978371   6.145214   5.111164   4.242177
                   21         22         23         24         25
    21  C    0.000000
    22  O    2.459877   0.000000
    23  O    1.269751   2.776085   0.000000
    24  O    1.259639   3.539556   2.262328   0.000000
    25  O    5.368275   3.372633   6.060729   6.016619   0.000000
    26  H    4.510010   2.418250   5.133515   5.255720   0.969657
    27  H    5.344412   3.584732   6.121051   5.904284   0.982107
    28  O    3.573216   5.112800   2.889464   3.798021   8.244326
    29  H    2.759037   4.168691   1.983660   3.230945   7.365670
    30  H    3.432317   5.364142   2.898465   3.386589   8.476608
    31  O    3.145872   5.505727   2.912961   2.730573   8.505388
    32  H    2.453167   4.900969   2.604901   1.795050   7.721315
    33  H    2.749530   4.918713   2.199144   2.742085   8.071092
    34  O    6.701970   5.279791   6.506042   7.718029   5.998401
    35  H    6.037975   4.861084   5.737997   7.063208   6.129484
    36  H    6.283986   4.785669   6.264903   7.244044   5.193614
    37  O    7.929112   7.225085   8.911906   7.959026   5.426623
    38  H    7.333089   6.819955   8.288056   7.342605   5.479326
    39  H    7.363683   6.449831   8.327447   7.494861   4.467340
                   26         27         28         29         30
    26  H    0.000000
    27  H    1.527801   0.000000
    28  O    7.312021   8.497850   0.000000
    29  H    6.422049   7.604790   0.975903   0.000000
    30  H    7.565750   8.628309   0.974695   1.477339   0.000000
    31  O    7.655647   8.425699   2.884964   2.854930   2.008331
    32  H    6.907436   7.623835   3.076810   2.865051   2.301397
    33  H    7.186607   8.016779   2.661547   2.398466   2.019707
    34  O    5.662722   5.738720   9.144524   8.209073   9.305008
    35  H    5.655940   5.889810   8.341796   7.426560   8.477782
    36  H    4.923502   4.855296   9.006354   8.049303   9.134039
    37  O    5.924670   4.489320  11.481598  10.657027  11.268302
    38  H    5.829113   4.506986  10.899766  10.081308  10.640022
    39  H    5.002349   3.539320  10.891425  10.045086  10.746800
                   31         32         33         34         35
    31  O    0.000000
    32  H    0.991354   0.000000
    33  H    0.972737   1.458918   0.000000
    34  O    8.860430   8.594659   8.038790   0.000000
    35  H    8.010920   7.806369   7.168785   0.975803   0.000000
    36  H    8.642467   8.276783   7.878316   0.967070   1.500762
    37  O   10.321920   9.497475  10.135715   7.664265   7.924197
    38  H    9.587528   8.798156   9.400029   7.188131   7.363338
    39  H    9.942647   9.107363   9.707755   7.114724   7.384916
                   36         37         38         39
    36  H    0.000000
    37  O    6.729283   0.000000
    38  H    6.277167   0.976891   0.000000
    39  H    6.157620   0.975217   1.445835   0.000000
 Stoichiometry    C10H18O11(2-)
 Framework group  C1[X(C10H18O11)]
 Deg. of freedom   111
 Full point group                 C1      NOp   1
 Largest Abelian subgroup         C1      NOp   1
 Largest concise Abelian subgroup C1      NOp   1
                         Standard orientation:                         
 ---------------------------------------------------------------------
 Center     Atomic      Atomic             Coordinates (Angstroms)
 Number     Number       Type             X           Y           Z
 ---------------------------------------------------------------------
      1          6           0       -1.520228    0.126858   -0.463007
      2          6           0       -0.640656    0.344212   -1.611685
      3          6           0       -1.403791    0.986427    0.627699
      4          6           0        0.377422    1.219842   -1.568663
      5          1           0       -0.873935   -0.230128   -2.501640
      6          6           0       -2.772787   -0.744189   -0.603246
      7          6           0       -0.208342    1.663855    0.830122
      8          1           0       -2.131771    0.926375    1.425930
      9          6           0        0.753154    1.933570   -0.308025
     10          1           0        1.019939    1.391314   -2.427327
     11          8           0       -3.085375   -1.081702   -1.772223
     12          8           0       -3.382225   -1.023472    0.475721
     13          1           0       -0.092096    2.305696    1.698032
     14          8           0        0.806257    3.374662   -0.595444
     15          1           0        1.754914    1.597413   -0.002994
     16          1           0        1.338784    3.765761    0.110625
     17          6           0       -0.118664   -1.775643    0.612545
     18          6           0        0.909528   -0.900635    0.922181
     19          1           0        0.055638   -2.542318   -0.131849
     20          1           0       -1.015616   -1.830824    1.209850
     21          6           0        2.251202   -1.011558    0.144676
     22          8           0        0.752408    0.062763    1.772695
     23          8           0        3.033365   -0.012439    0.192116
     24          8           0        2.455722   -2.103946   -0.448240
     25          8           0       -2.223109   -0.803006    3.103632
     26          1           0       -1.320751   -0.546298    2.858507
     27          1           0       -2.666826   -0.910019    2.234036
     28          8           0        5.728288   -0.752478    0.926100
     29          1           0        4.815148   -0.410675    0.967722
     30          1           0        5.677680   -1.191657    0.057428
     31          8           0        4.759356   -1.373514   -1.719368
     32          1           0        3.991859   -1.880516   -1.349664
     33          1           0        4.465578   -0.501696   -1.403386
     34          8           0       -1.835198    4.297637   -0.029063
     35          1           0       -0.942558    4.087440   -0.362533
     36          1           0       -2.211265    3.412153    0.069506
     37          8           0       -5.483434   -2.381190   -0.937142
     38          1           0       -4.801727   -2.067657   -1.562673
     39          1           0       -5.032462   -2.057321   -0.135405
 ---------------------------------------------------------------------
 Rotational constants (GHZ):      0.3468005      0.1699025      0.1454608
 Standard basis: 6-31G(d,p) (6D, 7F)
 There are   405 symmetry adapted cartesian basis functions of A   symmetry.
 There are   405 symmetry adapted basis functions of A   symmetry.
   405 basis functions,   714 primitive gaussians,   405 cartesian basis functions
    84 alpha electrons       84 beta electrons
       nuclear repulsion energy      1873.8052375593 Hartrees.
 NAtoms=   39 NActive=   39 NUniq=   39 SFac= 1.00D+00 NAtFMM=   60 NAOKFM=F Big=F
 Integral buffers will be    131072 words long.
 Raffenetti 2 integral format.
 Two-electron integral symmetry is turned on.
 Nuclear repulsion after empirical dispersion term =     1873.7521100471 Hartrees.
 ------------------------------------------------------------------------------
 Polarizable Continuum Model (PCM)
 =================================
 Model                : PCM (using non-symmetric T matrix).
 Atomic radii         : UFF (Universal Force Field).
 Polarization charges : Total charges.
 Charge compensation  : None.
 Solution method      : On-the-fly selection.
 Cavity type          : Scaled VdW (van der Waals Surface) (Alpha=1.100).
 Cavity algorithm     : GePol (No added spheres)
                        Default sphere list used, NSphG=   39.
                        Lebedev-Laikov grids with approx.  5.0 points / Ang**2.
                        Smoothing algorithm: Karplus/York (Gamma=1.0000).
                        Polarization charges: spherical gaussians, with
                                              point-specific exponents (IZeta= 3).
                        Self-potential: point-specific (ISelfS= 7).
                        Self-field    : sphere-specific E.n sum rule (ISelfD= 2).
 Solvent              : Water, Eps=  78.355300 Eps(inf)=   1.777849
 ------------------------------------------------------------------------------
 One-electron integrals computed using PRISM.
 PrsmSu:  requested number of processors reduced to:   8 ShMem   1 Linda.
 NBasis=   405 RedAO= T EigKep=  8.66D-04  NBF=   405
 NBsUse=   405 1.00D-06 EigRej= -1.00D+00 NBFU=   405
 ExpMin= 1.61D-01 ExpMax= 5.48D+03 ExpMxC= 8.25D+02 IAcc=1 IRadAn=         1 AccDes= 0.00D+00
 Harris functional with IExCor=  402 and IRadAn=       1 diagonalized for initial guess.
 HarFok:  IExCor=  402 AccDes= 0.00D+00 IRadAn=         1 IDoV= 1 UseB2=F ITyADJ=14
 ICtDFT=  3500011 ScaDFX=  1.000000  1.000000  1.000000  1.000000
 FoFCou: FMM=F IPFlag=           0 FMFlag=      100000 FMFlg1=           0
         NFxFlg=           0 DoJE=T BraDBF=F KetDBF=T FulRan=T
         wScrn=  0.000000 ICntrl=     500 IOpCl=  0 I1Cent=   200000004 NGrid=           0
         NMat0=    1 NMatS0=      1 NMatT0=    0 NMatD0=    1 NMtDS0=    0 NMtDT0=    0
 Petite list used in FoFCou.
 Requested convergence on RMS density matrix=1.00D-08 within 128 cycles.
 Requested convergence on MAX density matrix=1.00D-06.
 Requested convergence on             energy=1.00D-06.
 No special actions if energy rises.
 Inv3:  Mode=2 IEnd=    17653682.
 Iteration    1 A*A^-1 deviation from unit magnitude is 8.77D-15 for   2475.
 Iteration    1 A*A^-1 deviation from orthogonality  is 1.02D-14 for   1812    489.
 Iteration    1 A^-1*A deviation from unit magnitude is 1.01D-14 for   2652.
 Iteration    1 A^-1*A deviation from orthogonality  is 2.21D-07 for   1526   1424.
 Iteration    2 A*A^-1 deviation from unit magnitude is 1.10D-14 for    349.
 Iteration    2 A*A^-1 deviation from orthogonality  is 1.28D-14 for   1515     33.
 Iteration    2 A^-1*A deviation from unit magnitude is 1.78D-15 for      5.
 Iteration    2 A^-1*A deviation from orthogonality  is 7.77D-16 for   2438    657.
 CoulSu:  requested number of processors reduced to:  11 ShMem   4 Linda.
 Error on total polarization charges =  0.00649
 SCF Done:  E(RB3LYP) =  -1219.67526753     A.U. after   14 cycles
            NFock= 14  Conv=0.72D-08     -V/T= 2.0087

 **********************************************************************

            Population analysis using the SCF density.

 **********************************************************************

 Orbital symmetries:
       Occupied  (A) (A) (A) (A) (A) (A) (A) (A) (A) (A) (A) (A)
                 (A) (A) (A) (A) (A) (A) (A) (A) (A) (A) (A) (A)
                 (A) (A) (A) (A) (A) (A) (A) (A) (A) (A) (A) (A)
                 (A) (A) (A) (A) (A) (A) (A) (A) (A) (A) (A) (A)
                 (A) (A) (A) (A) (A) (A) (A) (A) (A) (A) (A) (A)
                 (A) (A) (A) (A) (A) (A) (A) (A) (A) (A) (A) (A)
                 (A) (A) (A) (A) (A) (A) (A) (A) (A) (A) (A) (A)
       Virtual   (A) (A) (A) (A) (A) (A) (A) (A) (A) (A) (A) (A)
                 (A) (A) (A) (A) (A) (A) (A) (A) (A) (A) (A) (A)
                 (A) (A) (A) (A) (A) (A) (A) (A) (A) (A) (A) (A)
                 (A) (A) (A) (A) (A) (A) (A) (A) (A) (A) (A) (A)
                 (A) (A) (A) (A) (A) (A) (A) (A) (A) (A) (A) (A)
                 (A) (A) (A) (A) (A) (A) (A) (A) (A) (A) (A) (A)
                 (A) (A) (A) (A) (A) (A) (A) (A) (A) (A) (A) (A)
                 (A) (A) (A) (A) (A) (A) (A) (A) (A) (A) (A) (A)
                 (A) (A) (A) (A) (A) (A) (A) (A) (A) (A) (A) (A)
                 (A) (A) (A) (A) (A) (A) (A) (A) (A) (A) (A) (A)
                 (A) (A) (A) (A) (A) (A) (A) (A) (A) (A) (A) (A)
                 (A) (A) (A) (A) (A) (A) (A) (A) (A) (A) (A) (A)
                 (A) (A) (A) (A) (A) (A) (A) (A) (A) (A) (A) (A)
                 (A) (A) (A) (A) (A) (A) (A) (A) (A) (A) (A) (A)
                 (A) (A) (A) (A) (A) (A) (A) (A) (A) (A) (A) (A)
                 (A) (A) (A) (A) (A) (A) (A) (A) (A) (A) (A) (A)
                 (A) (A) (A) (A) (A) (A) (A) (A) (A) (A) (A) (A)
                 (A) (A) (A) (A) (A) (A) (A) (A) (A) (A) (A) (A)
                 (A) (A) (A) (A) (A) (A) (A) (A) (A) (A) (A) (A)
                 (A) (A) (A) (A) (A) (A) (A) (A) (A) (A) (A) (A)
                 (A) (A) (A) (A) (A) (A) (A) (A) (A) (A) (A) (A)
                 (A) (A) (A) (A) (A) (A) (A) (A) (A) (A) (A) (A)
                 (A) (A) (A) (A) (A) (A) (A) (A) (A) (A) (A) (A)
                 (A) (A) (A) (A) (A) (A) (A) (A) (A) (A) (A) (A)
                 (A) (A) (A) (A) (A) (A) (A) (A) (A) (A) (A) (A)
                 (A) (A) (A) (A) (A) (A) (A) (A) (A) (A) (A) (A)
                 (A) (A) (A) (A) (A) (A) (A) (A) (A)
 The electronic state is 1-A.
 Alpha  occ. eigenvalues --  -19.16411 -19.13061 -19.11732 -19.11461 -19.11215
 Alpha  occ. eigenvalues --  -19.09982 -19.09417 -19.09276 -19.09114 -19.08911
 Alpha  occ. eigenvalues --  -19.08731 -10.27404 -10.26521 -10.23971 -10.22654
 Alpha  occ. eigenvalues --  -10.22408 -10.21195 -10.18896 -10.18744 -10.18303
 Alpha  occ. eigenvalues --  -10.17029  -1.02537  -1.02170  -1.02126  -0.98935
 Alpha  occ. eigenvalues --   -0.97621  -0.97140  -0.97072  -0.95687  -0.95420
 Alpha  occ. eigenvalues --   -0.93381  -0.92790  -0.84436  -0.75292  -0.74281
 Alpha  occ. eigenvalues --   -0.71286  -0.62824  -0.60163  -0.58352  -0.53857
 Alpha  occ. eigenvalues --   -0.51733  -0.50368  -0.49275  -0.48416  -0.47923
 Alpha  occ. eigenvalues --   -0.47210  -0.46693  -0.46287  -0.45468  -0.44648
 Alpha  occ. eigenvalues --   -0.44391  -0.43138  -0.42609  -0.41820  -0.41280
 Alpha  occ. eigenvalues --   -0.40077  -0.39530  -0.38704  -0.38388  -0.38153
 Alpha  occ. eigenvalues --   -0.37323  -0.36768  -0.36233  -0.35722  -0.35441
 Alpha  occ. eigenvalues --   -0.34863  -0.34521  -0.32748  -0.31047  -0.28948
 Alpha  occ. eigenvalues --   -0.27919  -0.27807  -0.27546  -0.27418  -0.26426
 Alpha  occ. eigenvalues --   -0.25926  -0.24913  -0.24545  -0.24399  -0.23941
 Alpha  occ. eigenvalues --   -0.23509  -0.22966  -0.21512  -0.20452
 Alpha virt. eigenvalues --   -0.08043  -0.00594   0.02257   0.03881   0.08900
 Alpha virt. eigenvalues --    0.10346   0.11643   0.12402   0.13063   0.13671
 Alpha virt. eigenvalues --    0.14960   0.15660   0.16183   0.17611   0.18413
 Alpha virt. eigenvalues --    0.19047   0.19219   0.19750   0.21192   0.22521
 Alpha virt. eigenvalues --    0.22642   0.22977   0.23255   0.24584   0.25550
 Alpha virt. eigenvalues --    0.26585   0.27594   0.28929   0.30780   0.32204
 Alpha virt. eigenvalues --    0.33636   0.35588   0.36555   0.38276   0.38987
 Alpha virt. eigenvalues --    0.42814   0.46501   0.47688   0.48821   0.50059
 Alpha virt. eigenvalues --    0.53954   0.55791   0.56481   0.56977   0.58502
 Alpha virt. eigenvalues --    0.60034   0.61059   0.62172   0.62623   0.62947
 Alpha virt. eigenvalues --    0.64384   0.64538   0.65565   0.66194   0.67844
 Alpha virt. eigenvalues --    0.68714   0.69647   0.71777   0.72585   0.73453
 Alpha virt. eigenvalues --    0.74451   0.75814   0.76460   0.77268   0.77379
 Alpha virt. eigenvalues --    0.78532   0.78845   0.80205   0.80604   0.80749
 Alpha virt. eigenvalues --    0.81228   0.82166   0.82621   0.82676   0.82925
 Alpha virt. eigenvalues --    0.84070   0.84268   0.85514   0.85745   0.86508
 Alpha virt. eigenvalues --    0.87509   0.87812   0.89351   0.90925   0.91564
 Alpha virt. eigenvalues --    0.91948   0.92110   0.92332   0.93705   0.95007
 Alpha virt. eigenvalues --    0.95338   0.96414   0.97693   0.97792   0.98286
 Alpha virt. eigenvalues --    0.99004   1.01167   1.02074   1.03074   1.03827
 Alpha virt. eigenvalues --    1.04650   1.05674   1.06530   1.07506   1.07736
 Alpha virt. eigenvalues --    1.08845   1.09732   1.10443   1.12238   1.13278
 Alpha virt. eigenvalues --    1.14043   1.14860   1.15943   1.16685   1.18692
 Alpha virt. eigenvalues --    1.20329   1.22407   1.22759   1.22949   1.24511
 Alpha virt. eigenvalues --    1.27329   1.27789   1.29433   1.29781   1.31965
 Alpha virt. eigenvalues --    1.32671   1.33844   1.34456   1.35060   1.37008
 Alpha virt. eigenvalues --    1.37891   1.38413   1.39604   1.40817   1.41151
 Alpha virt. eigenvalues --    1.42307   1.43107   1.46877   1.47905   1.48448
 Alpha virt. eigenvalues --    1.49530   1.50723   1.51885   1.53127   1.55308
 Alpha virt. eigenvalues --    1.55859   1.55901   1.56489   1.56880   1.58226
 Alpha virt. eigenvalues --    1.58938   1.59414   1.60511   1.61548   1.62420
 Alpha virt. eigenvalues --    1.62960   1.63866   1.64749   1.64834   1.65502
 Alpha virt. eigenvalues --    1.66218   1.68351   1.69024   1.70567   1.71174
 Alpha virt. eigenvalues --    1.71621   1.73611   1.74694   1.75732   1.76700
 Alpha virt. eigenvalues --    1.77369   1.78688   1.81714   1.83278   1.84319
 Alpha virt. eigenvalues --    1.85130   1.86508   1.89538   1.89884   1.91215
 Alpha virt. eigenvalues --    1.91826   1.92516   1.93063   1.94542   1.95293
 Alpha virt. eigenvalues --    1.97039   1.97595   1.98238   1.99552   2.01120
 Alpha virt. eigenvalues --    2.02433   2.02768   2.06253   2.07044   2.08004
 Alpha virt. eigenvalues --    2.08571   2.09887   2.11516   2.14114   2.15102
 Alpha virt. eigenvalues --    2.15755   2.18116   2.21254   2.23375   2.27680
 Alpha virt. eigenvalues --    2.28835   2.29546   2.30268   2.31736   2.31833
 Alpha virt. eigenvalues --    2.32939   2.33622   2.33979   2.35009   2.35731
 Alpha virt. eigenvalues --    2.37029   2.37989   2.38260   2.39999   2.40649
 Alpha virt. eigenvalues --    2.42017   2.43427   2.43684   2.45876   2.46200
 Alpha virt. eigenvalues --    2.47915   2.48772   2.49788   2.50572   2.51611
 Alpha virt. eigenvalues --    2.51779   2.52148   2.52812   2.52924   2.53291
 Alpha virt. eigenvalues --    2.55905   2.56676   2.58462   2.60178   2.61763
 Alpha virt. eigenvalues --    2.63085   2.63318   2.64128   2.65139   2.65721
 Alpha virt. eigenvalues --    2.66475   2.66833   2.68223   2.69383   2.70533
 Alpha virt. eigenvalues --    2.71431   2.72655   2.73684   2.74090   2.74584
 Alpha virt. eigenvalues --    2.75109   2.75717   2.76283   2.77101   2.78532
 Alpha virt. eigenvalues --    2.80749   2.83284   2.83981   2.88976   2.92083
 Alpha virt. eigenvalues --    2.94609   2.95510   2.97573   2.98665   3.01841
 Alpha virt. eigenvalues --    3.02340   3.03641   3.04665   3.05272   3.06375
 Alpha virt. eigenvalues --    3.07045   3.08643   3.11619   3.13910   3.18765
 Alpha virt. eigenvalues --    3.20722   3.27639   3.29096   3.34712   3.38231
 Alpha virt. eigenvalues --    3.39952   3.41665   3.42039   3.42925   3.44126
 Alpha virt. eigenvalues --    3.45315   3.45766   3.54161   3.60639   3.62338
 Alpha virt. eigenvalues --    3.63098   3.63600   3.65170   3.65516   3.72315
 Alpha virt. eigenvalues --    3.75769   3.78093   3.79148   3.85764   3.88721
 Alpha virt. eigenvalues --    4.04593   4.07859   4.11608   4.15821   4.23167
 Alpha virt. eigenvalues --    4.27561   4.33848   4.38466   4.42049   4.51713
 Alpha virt. eigenvalues --    4.54869   4.62715   4.65251   4.70516   4.78459
 Alpha virt. eigenvalues --    4.86472
          Condensed to atoms (all electrons):
               1          2          3          4          5          6
     1  C    5.163701   0.363454   0.447871  -0.012063  -0.053737   0.319852
     2  C    0.363454   4.915074  -0.048006   0.560719   0.369818  -0.036247
     3  C    0.447871  -0.048006   5.090804  -0.034823   0.007456  -0.037569
     4  C   -0.012063   0.560719  -0.034823   5.002272  -0.044966   0.005392
     5  H   -0.053737   0.369818   0.007456  -0.044966   0.612373  -0.008254
     6  C    0.319852  -0.036247  -0.037569   0.005392  -0.008254   4.350819
     7  C    0.004476  -0.029900   0.397317  -0.034356  -0.000417   0.005758
     8  H   -0.050927   0.007292   0.350655  -0.000564  -0.000098  -0.009188
     9  C   -0.043480  -0.020089  -0.012930   0.362502   0.005533  -0.000081
    10  H    0.004149  -0.029921   0.000167   0.367985  -0.007004  -0.000079
    11  O   -0.106730   0.005005   0.002219   0.000922   0.018183   0.460360
    12  O   -0.099986   0.004295   0.003200  -0.000077   0.000300   0.382781
    13  H    0.004512   0.000397  -0.032271   0.004115   0.000013  -0.000101
    14  O    0.000354   0.000458   0.001744  -0.040569  -0.000055   0.000001
    15  H   -0.000264   0.001291   0.005171  -0.040237  -0.000134  -0.000003
    16  H   -0.000031  -0.000137  -0.000135   0.005635   0.000005   0.000000
    17  C    0.060561  -0.002056  -0.004980  -0.006136   0.000565  -0.001834
    18  C    0.000285  -0.002763  -0.012422  -0.001746   0.000009  -0.000096
    19  H   -0.001653  -0.000471   0.000694   0.000009   0.000157   0.000556
    20  H   -0.004073   0.000290  -0.004439   0.000111  -0.000007  -0.002658
    21  C   -0.001132   0.002099  -0.000155   0.002559   0.000090  -0.000035
    22  O   -0.010612  -0.001292  -0.030637   0.002423  -0.000017   0.000013
    23  O    0.000027  -0.000137   0.000088   0.001301   0.000000   0.000000
    24  O   -0.000013  -0.000032   0.000002  -0.000370  -0.000004   0.000002
    25  O   -0.000670   0.000006  -0.008884  -0.000001   0.000000  -0.000386
    26  H   -0.001412   0.000043   0.002602  -0.000012   0.000000  -0.000042
    27  H   -0.001809  -0.000092   0.001114  -0.000001  -0.000005  -0.000695
    28  O    0.000000   0.000000   0.000000   0.000000   0.000000   0.000000
    29  H    0.000000   0.000000   0.000000   0.000000   0.000000   0.000000
    30  H    0.000000   0.000000   0.000000   0.000000   0.000000   0.000000
    31  O    0.000000   0.000000   0.000000  -0.000006   0.000000   0.000000
    32  H   -0.000001  -0.000003   0.000000   0.000012   0.000000   0.000000
    33  H    0.000000  -0.000004   0.000000   0.000034   0.000000   0.000000
    34  O   -0.000269  -0.000010  -0.003055   0.000042   0.000001  -0.000002
    35  H   -0.000243   0.000558   0.002107  -0.000196   0.000000  -0.000007
    36  H    0.000522   0.000156   0.014247  -0.000472   0.000000  -0.000044
    37  O   -0.000028   0.000003   0.000002   0.000000   0.000003   0.001168
    38  H    0.001242  -0.000038  -0.000018   0.000000  -0.000039   0.003679
    39  H    0.000978  -0.000017  -0.000024   0.000000  -0.000002   0.004024
               7          8          9         10         11         12
     1  C    0.004476  -0.050927  -0.043480   0.004149  -0.106730  -0.099986
     2  C   -0.029900   0.007292  -0.020089  -0.029921   0.005005   0.004295
     3  C    0.397317   0.350655  -0.012930   0.000167   0.002219   0.003200
     4  C   -0.034356  -0.000564   0.362502   0.367985   0.000922  -0.000077
     5  H   -0.000417  -0.000098   0.005533  -0.007004   0.018183   0.000300
     6  C    0.005758  -0.009188  -0.000081  -0.000079   0.460360   0.382781
     7  C    5.102064  -0.049101   0.302473   0.004990  -0.000090   0.000618
     8  H   -0.049101   0.623930   0.004947   0.000012   0.000123   0.008986
     9  C    0.302473   0.004947   4.957842  -0.044793  -0.000016  -0.000009
    10  H    0.004990   0.000012  -0.044793   0.600815   0.000001   0.000000
    11  O   -0.000090   0.000123  -0.000016   0.000001   8.288091  -0.083636
    12  O    0.000618   0.008986  -0.000009   0.000000  -0.083636   8.343069
    13  H    0.372319  -0.006677  -0.043101  -0.000143   0.000001   0.000005
    14  O   -0.038142  -0.000055   0.154886   0.002570   0.000000   0.000000
    15  H   -0.051050  -0.000109   0.351299  -0.003192   0.000000   0.000000
    16  H   -0.000438   0.000004  -0.018189  -0.000121   0.000000   0.000000
    17  C   -0.014818   0.002497  -0.000369  -0.000027  -0.000434  -0.005435
    18  C   -0.016721  -0.000823  -0.001265  -0.000010  -0.000003   0.000101
    19  H    0.000164  -0.000014   0.000044  -0.000004   0.000164  -0.000102
    20  H   -0.000008  -0.003225  -0.000074   0.000002  -0.000477   0.009077
    21  C   -0.002832  -0.000024  -0.000176   0.000102   0.000000  -0.000002
    22  O    0.075330  -0.000572  -0.008580  -0.000015   0.000000   0.000014
    23  O    0.000014   0.000001  -0.023536   0.000145   0.000000   0.000000
    24  O    0.000012   0.000000  -0.000195  -0.000021   0.000000   0.000000
    25  O   -0.000686   0.022404   0.000005   0.000000  -0.000004  -0.015602
    26  H    0.000141   0.001434   0.000066   0.000000   0.000001   0.000419
    27  H    0.000179   0.000885  -0.000004   0.000000   0.000332   0.058204
    28  O    0.000000   0.000000   0.000000   0.000000   0.000000   0.000000
    29  H   -0.000002   0.000000   0.000015   0.000000   0.000000   0.000000
    30  H    0.000000   0.000000   0.000000   0.000000   0.000000   0.000000
    31  O    0.000000   0.000000  -0.000001   0.000001   0.000000   0.000000
    32  H    0.000000   0.000000  -0.000002   0.000003   0.000000   0.000000
    33  H    0.000002   0.000000   0.000018   0.000047   0.000000   0.000000
    34  O    0.002592  -0.000161  -0.000512   0.000005   0.000000   0.000000
    35  H   -0.001343  -0.000015  -0.004141  -0.000071   0.000000   0.000000
    36  H    0.004420   0.000437   0.000371  -0.000001  -0.000003  -0.000005
    37  O    0.000000   0.000003   0.000000   0.000000  -0.016217  -0.013750
    38  H    0.000000  -0.000004   0.000000   0.000000   0.050909  -0.000533
    39  H    0.000000  -0.000029   0.000000   0.000000   0.000111   0.044688
              13         14         15         16         17         18
     1  C    0.004512   0.000354  -0.000264  -0.000031   0.060561   0.000285
     2  C    0.000397   0.000458   0.001291  -0.000137  -0.002056  -0.002763
     3  C   -0.032271   0.001744   0.005171  -0.000135  -0.004980  -0.012422
     4  C    0.004115  -0.040569  -0.040237   0.005635  -0.006136  -0.001746
     5  H    0.000013  -0.000055  -0.000134   0.000005   0.000565   0.000009
     6  C   -0.000101   0.000001  -0.000003   0.000000  -0.001834  -0.000096
     7  C    0.372319  -0.038142  -0.051050  -0.000438  -0.014818  -0.016721
     8  H   -0.006677  -0.000055  -0.000109   0.000004   0.002497  -0.000823
     9  C   -0.043101   0.154886   0.351299  -0.018189  -0.000369  -0.001265
    10  H   -0.000143   0.002570  -0.003192  -0.000121  -0.000027  -0.000010
    11  O    0.000001   0.000000   0.000000   0.000000  -0.000434  -0.000003
    12  O    0.000005   0.000000   0.000000   0.000000  -0.005435   0.000101
    13  H    0.581836  -0.000577  -0.001879   0.002909   0.000086   0.000492
    14  O   -0.000577   8.191372  -0.022808   0.279191  -0.000014  -0.000044
    15  H   -0.001879  -0.022808   0.551775  -0.005763   0.000965  -0.002577
    16  H    0.002909   0.279191  -0.005763   0.401690   0.000003   0.000008
    17  C    0.000086  -0.000014   0.000965   0.000003   5.295795   0.452729
    18  C    0.000492  -0.000044  -0.002577   0.000008   0.452729   4.799813
    19  H    0.000002   0.000000  -0.000059   0.000000   0.351596  -0.023620
    20  H   -0.000001   0.000000  -0.000016   0.000000   0.323539  -0.024420
    21  C    0.000034  -0.000018  -0.001817   0.000003  -0.078029   0.319047
    22  O   -0.006659   0.000336  -0.000017  -0.000043  -0.077414   0.337303
    23  O   -0.000017   0.000145   0.045604   0.000023   0.004591  -0.077521
    24  O    0.000000   0.000000   0.000423   0.000000   0.004388  -0.090494
    25  O   -0.000011   0.000000   0.000000   0.000000  -0.007042  -0.000382
    26  H   -0.000076   0.000000   0.000001   0.000000  -0.002740  -0.000055
    27  H    0.000001   0.000000   0.000000   0.000000  -0.001610  -0.000018
    28  O    0.000000   0.000000   0.000006   0.000000   0.000000  -0.000015
    29  H    0.000000   0.000000   0.000006   0.000000  -0.000010   0.000331
    30  H    0.000000   0.000000   0.000000   0.000000  -0.000001   0.000007
    31  O    0.000000   0.000000   0.000011   0.000000   0.000006  -0.000028
    32  H    0.000000   0.000000  -0.000011   0.000000  -0.000091   0.001398
    33  H    0.000000   0.000000  -0.000033   0.000000  -0.000023   0.000611
    34  O    0.001796  -0.016793  -0.000040   0.001273   0.000000   0.000000
    35  H   -0.000442   0.055695   0.000651  -0.003634   0.000001   0.000003
    36  H   -0.000464   0.000845   0.000041  -0.000049   0.000004   0.000010
    37  O    0.000000   0.000000   0.000000   0.000000   0.000000   0.000000
    38  H    0.000000   0.000000   0.000000   0.000000  -0.000005   0.000000
    39  H    0.000000   0.000000   0.000000   0.000000   0.000005   0.000000
              19         20         21         22         23         24
     1  C   -0.001653  -0.004073  -0.001132  -0.010612   0.000027  -0.000013
     2  C   -0.000471   0.000290   0.002099  -0.001292  -0.000137  -0.000032
     3  C    0.000694  -0.004439  -0.000155  -0.030637   0.000088   0.000002
     4  C    0.000009   0.000111   0.002559   0.002423   0.001301  -0.000370
     5  H    0.000157  -0.000007   0.000090  -0.000017   0.000000  -0.000004
     6  C    0.000556  -0.002658  -0.000035   0.000013   0.000000   0.000002
     7  C    0.000164  -0.000008  -0.002832   0.075330   0.000014   0.000012
     8  H   -0.000014  -0.003225  -0.000024  -0.000572   0.000001   0.000000
     9  C    0.000044  -0.000074  -0.000176  -0.008580  -0.023536  -0.000195
    10  H   -0.000004   0.000002   0.000102  -0.000015   0.000145  -0.000021
    11  O    0.000164  -0.000477   0.000000   0.000000   0.000000   0.000000
    12  O   -0.000102   0.009077  -0.000002   0.000014   0.000000   0.000000
    13  H    0.000002  -0.000001   0.000034  -0.006659  -0.000017   0.000000
    14  O    0.000000   0.000000  -0.000018   0.000336   0.000145   0.000000
    15  H   -0.000059  -0.000016  -0.001817  -0.000017   0.045604   0.000423
    16  H    0.000000   0.000000   0.000003  -0.000043   0.000023   0.000000
    17  C    0.351596   0.323539  -0.078029  -0.077414   0.004591   0.004388
    18  C   -0.023620  -0.024420   0.319047   0.337303  -0.077521  -0.090494
    19  H    0.590085  -0.036519  -0.003941   0.004011   0.000240   0.015228
    20  H   -0.036519   0.625224   0.003595  -0.005618  -0.000064   0.000282
    21  C   -0.003941   0.003595   4.489167  -0.053942   0.354261   0.414866
    22  O    0.004011  -0.005618  -0.053942   8.317713   0.001572   0.001706
    23  O    0.000240  -0.000064   0.354261   0.001572   8.354268  -0.083306
    24  O    0.015228   0.000282   0.414866   0.001706  -0.083306   8.322179
    25  O    0.000049   0.019196  -0.000006  -0.003233   0.000000   0.000000
    26  H    0.000083   0.004463   0.000279   0.028039  -0.000002  -0.000004
    27  H    0.000010   0.004062  -0.000003  -0.000039   0.000000   0.000000
    28  O    0.000000   0.000000   0.001567   0.000001  -0.013195  -0.000196
    29  H   -0.000001   0.000000   0.001495  -0.000070   0.044283  -0.000375
    30  H    0.000000   0.000000   0.000465   0.000000   0.001087   0.000535
    31  O    0.000004   0.000000   0.001575   0.000000  -0.009397  -0.027121
    32  H   -0.000042   0.000000   0.002496  -0.000017  -0.001335   0.070138
    33  H   -0.000003   0.000000   0.003550  -0.000003   0.031314   0.000436
    34  O    0.000000   0.000000   0.000000   0.000001   0.000000   0.000000
    35  H    0.000000   0.000000   0.000000  -0.000002   0.000000   0.000000
    36  H    0.000000   0.000001   0.000000   0.000017   0.000000   0.000000
    37  O    0.000000   0.000002   0.000000   0.000000   0.000000   0.000000
    38  H   -0.000001  -0.000002   0.000000   0.000000   0.000000   0.000000
    39  H   -0.000001  -0.000011   0.000000   0.000000   0.000000   0.000000
              25         26         27         28         29         30
     1  C   -0.000670  -0.001412  -0.001809   0.000000   0.000000   0.000000
     2  C    0.000006   0.000043  -0.000092   0.000000   0.000000   0.000000
     3  C   -0.008884   0.002602   0.001114   0.000000   0.000000   0.000000
     4  C   -0.000001  -0.000012  -0.000001   0.000000   0.000000   0.000000
     5  H    0.000000   0.000000  -0.000005   0.000000   0.000000   0.000000
     6  C   -0.000386  -0.000042  -0.000695   0.000000   0.000000   0.000000
     7  C   -0.000686   0.000141   0.000179   0.000000  -0.000002   0.000000
     8  H    0.022404   0.001434   0.000885   0.000000   0.000000   0.000000
     9  C    0.000005   0.000066  -0.000004   0.000000   0.000015   0.000000
    10  H    0.000000   0.000000   0.000000   0.000000   0.000000   0.000000
    11  O   -0.000004   0.000001   0.000332   0.000000   0.000000   0.000000
    12  O   -0.015602   0.000419   0.058204   0.000000   0.000000   0.000000
    13  H   -0.000011  -0.000076   0.000001   0.000000   0.000000   0.000000
    14  O    0.000000   0.000000   0.000000   0.000000   0.000000   0.000000
    15  H    0.000000   0.000001   0.000000   0.000006   0.000006   0.000000
    16  H    0.000000   0.000000   0.000000   0.000000   0.000000   0.000000
    17  C   -0.007042  -0.002740  -0.001610   0.000000  -0.000010  -0.000001
    18  C   -0.000382  -0.000055  -0.000018  -0.000015   0.000331   0.000007
    19  H    0.000049   0.000083   0.000010   0.000000  -0.000001   0.000000
    20  H    0.019196   0.004463   0.004062   0.000000   0.000000   0.000000
    21  C   -0.000006   0.000279  -0.000003   0.001567   0.001495   0.000465
    22  O   -0.003233   0.028039  -0.000039   0.000001  -0.000070   0.000000
    23  O    0.000000  -0.000002   0.000000  -0.013195   0.044283   0.001087
    24  O    0.000000  -0.000004   0.000000  -0.000196  -0.000375   0.000535
    25  O    8.146718   0.284816   0.274776   0.000000   0.000000   0.000000
    26  H    0.284816   0.406501  -0.039525   0.000000   0.000000   0.000000
    27  H    0.274776  -0.039525   0.361360   0.000000   0.000000   0.000000
    28  O    0.000000   0.000000   0.000000   8.196227   0.282930   0.269501
    29  H    0.000000   0.000000   0.000000   0.282930   0.397935  -0.039939
    30  H    0.000000   0.000000   0.000000   0.269501  -0.039939   0.424036
    31  O    0.000000   0.000000   0.000000  -0.016923   0.001451   0.060375
    32  H    0.000000   0.000000   0.000000   0.001122   0.000794  -0.001169
    33  H    0.000000   0.000000   0.000000   0.005668   0.001036  -0.006622
    34  O    0.000000   0.000000   0.000000   0.000000   0.000000   0.000000
    35  H    0.000000   0.000000   0.000000   0.000000   0.000000   0.000000
    36  H    0.000001   0.000002   0.000000   0.000000   0.000000   0.000000
    37  O    0.000000   0.000000   0.000010   0.000000   0.000000   0.000000
    38  H    0.000000   0.000000   0.000001   0.000000   0.000000   0.000000
    39  H    0.000012   0.000000  -0.000078   0.000000   0.000000   0.000000
              31         32         33         34         35         36
     1  C    0.000000  -0.000001   0.000000  -0.000269  -0.000243   0.000522
     2  C    0.000000  -0.000003  -0.000004  -0.000010   0.000558   0.000156
     3  C    0.000000   0.000000   0.000000  -0.003055   0.002107   0.014247
     4  C   -0.000006   0.000012   0.000034   0.000042  -0.000196  -0.000472
     5  H    0.000000   0.000000   0.000000   0.000001   0.000000   0.000000
     6  C    0.000000   0.000000   0.000000  -0.000002  -0.000007  -0.000044
     7  C    0.000000   0.000000   0.000002   0.002592  -0.001343   0.004420
     8  H    0.000000   0.000000   0.000000  -0.000161  -0.000015   0.000437
     9  C   -0.000001  -0.000002   0.000018  -0.000512  -0.004141   0.000371
    10  H    0.000001   0.000003   0.000047   0.000005  -0.000071  -0.000001
    11  O    0.000000   0.000000   0.000000   0.000000   0.000000  -0.000003
    12  O    0.000000   0.000000   0.000000   0.000000   0.000000  -0.000005
    13  H    0.000000   0.000000   0.000000   0.001796  -0.000442  -0.000464
    14  O    0.000000   0.000000   0.000000  -0.016793   0.055695   0.000845
    15  H    0.000011  -0.000011  -0.000033  -0.000040   0.000651   0.000041
    16  H    0.000000   0.000000   0.000000   0.001273  -0.003634  -0.000049
    17  C    0.000006  -0.000091  -0.000023   0.000000   0.000001   0.000004
    18  C   -0.000028   0.001398   0.000611   0.000000   0.000003   0.000010
    19  H    0.000004  -0.000042  -0.000003   0.000000   0.000000   0.000000
    20  H    0.000000   0.000000   0.000000   0.000000   0.000000   0.000001
    21  C    0.001575   0.002496   0.003550   0.000000   0.000000   0.000000
    22  O    0.000000  -0.000017  -0.000003   0.000001  -0.000002   0.000017
    23  O   -0.009397  -0.001335   0.031314   0.000000   0.000000   0.000000
    24  O   -0.027121   0.070138   0.000436   0.000000   0.000000   0.000000
    25  O    0.000000   0.000000   0.000000   0.000000   0.000000   0.000001
    26  H    0.000000   0.000000   0.000000   0.000000   0.000000   0.000002
    27  H    0.000000   0.000000   0.000000   0.000000   0.000000   0.000000
    28  O   -0.016923   0.001122   0.005668   0.000000   0.000000   0.000000
    29  H    0.001451   0.000794   0.001036   0.000000   0.000000   0.000000
    30  H    0.060375  -0.001169  -0.006622   0.000000   0.000000   0.000000
    31  O    8.146917   0.259306   0.274121   0.000000   0.000000   0.000000
    32  H    0.259306   0.385480  -0.037376   0.000000   0.000000   0.000000
    33  H    0.274121  -0.037376   0.426677   0.000000   0.000000   0.000000
    34  O    0.000000   0.000000   0.000000   8.152806   0.275390   0.288946
    35  H    0.000000   0.000000   0.000000   0.275390   0.386728  -0.034617
    36  H    0.000000   0.000000   0.000000   0.288946  -0.034617   0.419756
    37  O    0.000000   0.000000   0.000000   0.000000   0.000000   0.000000
    38  H    0.000000   0.000000   0.000000   0.000000   0.000000   0.000000
    39  H    0.000000   0.000000   0.000000   0.000000   0.000000   0.000000
              37         38         39
     1  C   -0.000028   0.001242   0.000978
     2  C    0.000003  -0.000038  -0.000017
     3  C    0.000002  -0.000018  -0.000024
     4  C    0.000000   0.000000   0.000000
     5  H    0.000003  -0.000039  -0.000002
     6  C    0.001168   0.003679   0.004024
     7  C    0.000000   0.000000   0.000000
     8  H    0.000003  -0.000004  -0.000029
     9  C    0.000000   0.000000   0.000000
    10  H    0.000000   0.000000   0.000000
    11  O   -0.016217   0.050909   0.000111
    12  O   -0.013750  -0.000533   0.044688
    13  H    0.000000   0.000000   0.000000
    14  O    0.000000   0.000000   0.000000
    15  H    0.000000   0.000000   0.000000
    16  H    0.000000   0.000000   0.000000
    17  C    0.000000  -0.000005   0.000005
    18  C    0.000000   0.000000   0.000000
    19  H    0.000000  -0.000001  -0.000001
    20  H    0.000002  -0.000002  -0.000011
    21  C    0.000000   0.000000   0.000000
    22  O    0.000000   0.000000   0.000000
    23  O    0.000000   0.000000   0.000000
    24  O    0.000000   0.000000   0.000000
    25  O    0.000000   0.000000   0.000012
    26  H    0.000000   0.000000   0.000000
    27  H    0.000010   0.000001  -0.000078
    28  O    0.000000   0.000000   0.000000
    29  H    0.000000   0.000000   0.000000
    30  H    0.000000   0.000000   0.000000
    31  O    0.000000   0.000000   0.000000
    32  H    0.000000   0.000000   0.000000
    33  H    0.000000   0.000000   0.000000
    34  O    0.000000   0.000000   0.000000
    35  H    0.000000   0.000000   0.000000
    36  H    0.000000   0.000000   0.000000
    37  O    8.195997   0.277209   0.280331
    38  H    0.277209   0.409201  -0.041857
    39  H    0.280331  -0.041857   0.412241
 Mulliken charges:
               1
     1  C    0.017148
     2  C   -0.059744
     3  C   -0.097115
     4  C   -0.099437
     5  H    0.100233
     6  C    0.562918
     7  C   -0.032965
     8  H    0.097978
     9  C    0.081542
    10  H    0.104406
    11  O   -0.618812
    12  O   -0.636622
    13  H    0.123903
    14  O   -0.568523
    15  H    0.172766
    16  H    0.337798
    17  C   -0.294258
    18  C    0.342876
    19  H    0.103334
    20  H    0.091767
    21  C    0.544861
    22  O   -0.569695
    23  O   -0.630455
    24  O   -0.628066
    25  O   -0.711076
    26  H    0.314979
    27  H    0.342943
    28  O   -0.726692
    29  H    0.310121
    30  H    0.291726
    31  O   -0.690291
    32  H    0.319296
    33  H    0.300552
    34  O   -0.702006
    35  H    0.323578
    36  H    0.305880
    37  O   -0.724732
    38  H    0.300256
    39  H    0.299629
 Sum of Mulliken charges =  -2.00000
 Mulliken charges with hydrogens summed into heavy atoms:
               1
     1  C    0.017148
     2  C    0.040489
     3  C    0.000863
     4  C    0.004969
     6  C    0.562918
     7  C    0.090938
     9  C    0.254308
    11  O   -0.618812
    12  O   -0.636622
    14  O   -0.230725
    17  C   -0.099157
    18  C    0.342876
    21  C    0.544861
    22  O   -0.569695
    23  O   -0.630455
    24  O   -0.628066
    25  O   -0.053154
    28  O   -0.124845
    31  O   -0.070443
    34  O   -0.072548
    37  O   -0.124848
 Electronic spatial extent (au):  <R**2>=           8028.6387
 Charge=             -2.0000 electrons
 Dipole moment (field-independent basis, Debye):
    X=              1.7041    Y=              9.1858    Z=             -0.4600  Tot=              9.3539
 Quadrupole moment (field-independent basis, Debye-Ang):
   XX=           -298.5480   YY=           -170.1088   ZZ=           -157.9243
   XY=              2.4013   XZ=             -5.5525   YZ=             -0.6148
 Traceless Quadrupole moment (field-independent basis, Debye-Ang):
   XX=            -89.6876   YY=             38.7516   ZZ=             50.9360
   XY=              2.4013   XZ=             -5.5525   YZ=             -0.6148
 Octapole moment (field-independent basis, Debye-Ang**2):
  XXX=            -70.4083  YYY=            -56.4458  ZZZ=            -42.9653  XYY=            117.3104
  XXY=            241.1700  XXZ=             37.1525  XZZ=             23.5899  YZZ=             33.4414
  YYZ=             34.9144  XYZ=              9.3038
 Hexadecapole moment (field-independent basis, Debye-Ang**3):
 XXXX=         -10618.4550 YYYY=          -3062.7460 ZZZZ=          -1491.8215 XXXY=           -388.9607
 XXXZ=           -472.0397 YYYX=            245.6200 YYYZ=             36.7273 ZZZX=            145.4074
 ZZZY=             42.4647 XXYY=          -1955.5010 XXZZ=          -1582.7198 YYZZ=           -654.6658
 XXYZ=           -181.1423 YYXZ=            -21.2931 ZZXY=             -1.7621
 N-N= 1.873752110047D+03 E-N=-6.650764171312D+03  KE= 1.209131221501D+03
 1\1\GINC-C48-1\SP\RB3LYP\6-31G(d,p)\C10H18O11(2-)\GVI022\06-Feb-2019\0
 \\# rb3lyp/6-31g(d,p) scrf=(iefpcm,solvent=water) geom=connectivity em
 piricaldispersion=gd3\\Title Card Required\\-2,1\C,0,-1.520228,0.12685
 8,-0.463007\C,0,-0.640656,0.344212,-1.611685\C,0,-1.403791,0.986427,0.
 627699\C,0,0.377422,1.219842,-1.568663\H,0,-0.873935,-0.230128,-2.5016
 4\C,0,-2.772787,-0.744189,-0.603246\C,0,-0.208342,1.663855,0.830122\H,
 0,-2.131771,0.926375,1.42593\C,0,0.753154,1.93357,-0.308025\H,0,1.0199
 39,1.391314,-2.427327\O,0,-3.085375,-1.081702,-1.772223\O,0,-3.382225,
 -1.023472,0.475721\H,0,-0.092096,2.305696,1.698032\O,0,0.806257,3.3746
 62,-0.595444\H,0,1.754914,1.597413,-0.002994\H,0,1.338784,3.765761,0.1
 10625\C,0,-0.118664,-1.775643,0.612545\C,0,0.909528,-0.900635,0.922181
 \H,0,0.055638,-2.542318,-0.131849\H,0,-1.015616,-1.830824,1.20985\C,0,
 2.251202,-1.011558,0.144676\O,0,0.752408,0.062763,1.772695\O,0,3.03336
 5,-0.012439,0.192116\O,0,2.455722,-2.103946,-0.44824\O,0,-2.223109,-0.
 803006,3.103632\H,0,-1.320751,-0.546298,2.858507\H,0,-2.666826,-0.9100
 19,2.234036\O,0,5.728288,-0.752478,0.9261\H,0,4.815148,-0.410675,0.967
 722\H,0,5.67768,-1.191657,0.057428\O,0,4.759356,-1.373514,-1.719368\H,
 0,3.991859,-1.880516,-1.349664\H,0,4.465578,-0.501696,-1.403386\O,0,-1
 .835198,4.297637,-0.029063\H,0,-0.942558,4.08744,-0.362533\H,0,-2.2112
 65,3.412153,0.069506\O,0,-5.483434,-2.38119,-0.937142\H,0,-4.801727,-2
 .067657,-1.562673\H,0,-5.032462,-2.057321,-0.135405\\Version=EM64L-G09
 RevD.01\State=1-A\HF=-1219.6752675\RMSD=7.201e-09\Dipole=0.670446,3.61
 39781,-0.1809705\Quadrupole=-66.680556,28.8108577,37.8696983,1.7853205
 ,-4.1281536,-0.4570895\PG=C01 [X(C10H18O11)]\\@


 OPTIMIST - A PESSIMIST WHO LACKS EXPERIENCE
 Job cpu time:       0 days  0 hours  0 minutes 25.7 seconds.
 File lengths (MBytes):  RWF=    264 Int=      0 D2E=      0 Chk=      8 Scr=      1
 Normal termination of Gaussian 09 at Wed Feb  6 08:05:09 2019.
