 Entering Gaussian System, Link 0=g09
 Initial command:
 /global/apps/Gaussian/09.d01/l1.exe "/global/work/gvi022/1443074/Gau-45325.inp" -scrdir="/global/work/gvi022/1443074/"
 Entering Link 1 = /global/apps/Gaussian/09.d01/l1.exe PID=     45326.
  
 Copyright (c) 1988,1990,1992,1993,1995,1998,2003,2009,2013,
            Gaussian, Inc.  All Rights Reserved.
  
 This is part of the Gaussian(R) 09 program.  It is based on
 the Gaussian(R) 03 system (copyright 2003, Gaussian, Inc.),
 the Gaussian(R) 98 system (copyright 1998, Gaussian, Inc.),
 the Gaussian(R) 94 system (copyright 1995, Gaussian, Inc.),
 the Gaussian 92(TM) system (copyright 1992, Gaussian, Inc.),
 the Gaussian 90(TM) system (copyright 1990, Gaussian, Inc.),
 the Gaussian 88(TM) system (copyright 1988, Gaussian, Inc.),
 the Gaussian 86(TM) system (copyright 1986, Carnegie Mellon
 University), and the Gaussian 82(TM) system (copyright 1983,
 Carnegie Mellon University). Gaussian is a federally registered
 trademark of Gaussian, Inc.
  
 This software contains proprietary and confidential information,
 including trade secrets, belonging to Gaussian, Inc.
  
 This software is provided under written license and may be
 used, copied, transmitted, or stored only in accord with that
 written license.
  
 The following legend is applicable only to US Government
 contracts under FAR:
  
                    RESTRICTED RIGHTS LEGEND
  
 Use, reproduction and disclosure by the US Government is
 subject to restrictions as set forth in subparagraphs (a)
 and (c) of the Commercial Computer Software - Restricted
 Rights clause in FAR 52.227-19.
  
 Gaussian, Inc.
 340 Quinnipiac St., Bldg. 40, Wallingford CT 06492
  
  
 ---------------------------------------------------------------
 Warning -- This program may not be used in any manner that
 competes with the business of Gaussian, Inc. or will provide
 assistance to any competitor of Gaussian, Inc.  The licensee
 of this program is prohibited from giving any competitor of
 Gaussian, Inc. access to this program.  By using this program,
 the user acknowledges that Gaussian, Inc. is engaged in the
 business of creating and licensing software in the field of
 computational chemistry and represents and warrants to the
 licensee that it is not a competitor of Gaussian, Inc. and that
 it will not use this program in any manner prohibited above.
 ---------------------------------------------------------------
  

 Cite this work as:
 Gaussian 09, Revision D.01,
 M. J. Frisch, G. W. Trucks, H. B. Schlegel, G. E. Scuseria, 
 M. A. Robb, J. R. Cheeseman, G. Scalmani, V. Barone, B. Mennucci, 
 G. A. Petersson, H. Nakatsuji, M. Caricato, X. Li, H. P. Hratchian, 
 A. F. Izmaylov, J. Bloino, G. Zheng, J. L. Sonnenberg, M. Hada, 
 M. Ehara, K. Toyota, R. Fukuda, J. Hasegawa, M. Ishida, T. Nakajima, 
 Y. Honda, O. Kitao, H. Nakai, T. Vreven, J. A. Montgomery, Jr., 
 J. E. Peralta, F. Ogliaro, M. Bearpark, J. J. Heyd, E. Brothers, 
 K. N. Kudin, V. N. Staroverov, T. Keith, R. Kobayashi, J. Normand, 
 K. Raghavachari, A. Rendell, J. C. Burant, S. S. Iyengar, J. Tomasi, 
 M. Cossi, N. Rega, J. M. Millam, M. Klene, J. E. Knox, J. B. Cross, 
 V. Bakken, C. Adamo, J. Jaramillo, R. Gomperts, R. E. Stratmann, 
 O. Yazyev, A. J. Austin, R. Cammi, C. Pomelli, J. W. Ochterski, 
 R. L. Martin, K. Morokuma, V. G. Zakrzewski, G. A. Voth, 
 P. Salvador, J. J. Dannenberg, S. Dapprich, A. D. Daniels, 
 O. Farkas, J. B. Foresman, J. V. Ortiz, J. Cioslowski, 
 and D. J. Fox, Gaussian, Inc., Wallingford CT, 2013.
 
 ******************************************
 Gaussian 09:  EM64L-G09RevD.01 24-Apr-2013
                 6-Feb-2019 
 ******************************************
 %LindaWorkers=cib48-1,cib48-3,cib48-7,cib49-3
 %NProcShared=20
 Will use up to   20 processors via shared memory.
 %chk=ChorA_big.chk
 SetLPE:  input flags=""
 SetLPE:    new flags=" -nodelist 'cib48-1.ibnet cib48-3.ibnet cib48-7.ibnet cib49-3.ibnet'"
 Will use up to    4 processors via Linda.
 -----------------------------------------------------------------
 # rb3lyp/6-311+g(2d,2p) geom=connectivity empiricaldispersion=gd3
 -----------------------------------------------------------------
 1/38=1,57=2/1;
 2/12=2,17=6,18=5,40=1/2;
 3/5=4,6=6,7=212,11=2,16=1,25=1,30=1,74=-5,116=1,124=31/1,2,3;
 4//1;
 5/5=2,38=5/2;
 6/7=2,8=2,9=2,10=2,28=1/1;
 99/5=1,9=1/99;
 -------------------
 Title Card Required
 -------------------
 Symbolic Z-matrix:
 Charge = -2 Multiplicity = 1
 C                    -1.52023   0.12686  -0.46301 
 C                    -0.64066   0.34421  -1.61169 
 C                    -1.40379   0.98643   0.6277 
 C                     0.37742   1.21984  -1.56866 
 H                    -0.87394  -0.23013  -2.50164 
 C                    -2.77279  -0.74419  -0.60325 
 C                    -0.20834   1.66386   0.83012 
 H                    -2.13177   0.92638   1.42593 
 C                     0.75315   1.93357  -0.30803 
 H                     1.01994   1.39131  -2.42733 
 O                    -3.08537  -1.0817   -1.77222 
 O                    -3.38223  -1.02347   0.47572 
 H                    -0.0921    2.3057    1.69803 
 O                     0.80626   3.37466  -0.59544 
 H                     1.75491   1.59741  -0.00299 
 H                     1.33878   3.76576   0.11063 
 C                    -0.11866  -1.77564   0.61255 
 C                     0.90953  -0.90064   0.92218 
 H                     0.05564  -2.54232  -0.13185 
 H                    -1.01562  -1.83082   1.20985 
 C                     2.2512   -1.01156   0.14468 
 O                     0.75241   0.06276   1.7727 
 O                     3.03336  -0.01244   0.19212 
 O                     2.45572  -2.10395  -0.44824 
 O                    -2.22311  -0.80301   3.10363 
 H                    -1.32075  -0.5463    2.85851 
 H                    -2.66683  -0.91002   2.23404 
 O                     5.72829  -0.75248   0.9261 
 H                     4.81515  -0.41068   0.96772 
 H                     5.67768  -1.19166   0.05743 
 O                     4.75936  -1.37351  -1.71937 
 H                     3.99186  -1.88052  -1.34966 
 H                     4.46558  -0.5017   -1.40339 
 O                    -1.8352    4.29764  -0.02906 
 H                    -0.94256   4.08744  -0.36253 
 H                    -2.21127   3.41215   0.06951 
 O                    -5.48343  -2.38119  -0.93714 
 H                    -4.80173  -2.06766  -1.56267 
 H                    -5.03246  -2.05732  -0.13541 
 
                          Input orientation:                          
 ---------------------------------------------------------------------
 Center     Atomic      Atomic             Coordinates (Angstroms)
 Number     Number       Type             X           Y           Z
 ---------------------------------------------------------------------
      1          6           0       -1.520228    0.126858   -0.463007
      2          6           0       -0.640656    0.344212   -1.611685
      3          6           0       -1.403791    0.986427    0.627699
      4          6           0        0.377422    1.219842   -1.568663
      5          1           0       -0.873935   -0.230128   -2.501640
      6          6           0       -2.772787   -0.744189   -0.603246
      7          6           0       -0.208342    1.663855    0.830122
      8          1           0       -2.131771    0.926375    1.425930
      9          6           0        0.753154    1.933570   -0.308025
     10          1           0        1.019939    1.391314   -2.427327
     11          8           0       -3.085375   -1.081702   -1.772223
     12          8           0       -3.382225   -1.023472    0.475721
     13          1           0       -0.092096    2.305696    1.698032
     14          8           0        0.806257    3.374662   -0.595444
     15          1           0        1.754914    1.597413   -0.002994
     16          1           0        1.338784    3.765761    0.110625
     17          6           0       -0.118664   -1.775643    0.612545
     18          6           0        0.909528   -0.900635    0.922181
     19          1           0        0.055638   -2.542318   -0.131849
     20          1           0       -1.015616   -1.830824    1.209850
     21          6           0        2.251202   -1.011558    0.144676
     22          8           0        0.752408    0.062763    1.772695
     23          8           0        3.033365   -0.012439    0.192116
     24          8           0        2.455722   -2.103946   -0.448240
     25          8           0       -2.223109   -0.803006    3.103632
     26          1           0       -1.320751   -0.546298    2.858507
     27          1           0       -2.666826   -0.910019    2.234036
     28          8           0        5.728288   -0.752478    0.926100
     29          1           0        4.815148   -0.410675    0.967722
     30          1           0        5.677680   -1.191657    0.057428
     31          8           0        4.759356   -1.373514   -1.719368
     32          1           0        3.991859   -1.880516   -1.349664
     33          1           0        4.465578   -0.501696   -1.403386
     34          8           0       -1.835198    4.297637   -0.029063
     35          1           0       -0.942558    4.087440   -0.362533
     36          1           0       -2.211265    3.412153    0.069506
     37          8           0       -5.483434   -2.381190   -0.937142
     38          1           0       -4.801727   -2.067657   -1.562673
     39          1           0       -5.032462   -2.057321   -0.135405
 ---------------------------------------------------------------------
                    Distance matrix (angstroms):
                    1          2          3          4          5
     1  C    0.000000
     2  C    1.462994   0.000000
     3  C    1.393577   2.451460   0.000000
     4  C    2.453195   1.343526   2.837465   0.000000
     5  H    2.168215   1.084576   3.399046   2.130435   0.000000
     6  C    1.532088   2.597604   2.526738   3.835787   2.733825
     7  C    2.399081   2.809052   1.388878   2.508872   3.889836
     8  H    2.140396   3.433576   1.082005   3.917877   4.283160
     9  C    2.908005   2.483605   2.534772   1.496593   3.484387
    10  H    3.451065   2.125858   3.920661   1.086064   2.494264
    11  O    2.371571   2.834723   3.586713   4.162872   2.479454
    12  O    2.381492   3.707293   2.824357   4.831864   3.973109
    13  H    3.384817   3.886202   2.146305   3.474309   4.967788
    14  O    3.997287   3.508551   3.476213   2.402978   4.410345
    15  H    3.619489   3.145974   3.278490   2.119284   4.061279
    16  H    4.663113   4.311790   3.938754   3.197801   5.261861
    17  C    2.596287   3.116642   3.046442   3.738543   3.557696
    18  C    2.979631   3.220744   2.999861   3.314191   3.918274
    19  H    3.117294   3.317649   3.893442   4.040028   3.438930
    20  H    2.624043   3.582239   2.902840   4.355141   4.044436
    21  C    3.986095   3.644964   4.193355   3.380196   4.168945
    22  O    3.188628   3.670677   2.610242   3.555857   4.582654
    23  O    4.602586   4.108446   4.569006   3.416561   4.750863
    24  O    4.559044   4.115172   5.060029   4.077039   4.337541
    25  O    3.752280   5.104359   3.162846   5.717081   5.793750
    26  H    3.394906   4.608487   2.707886   5.059928   5.388022
    27  H    3.108672   4.524161   2.787846   5.316415   5.109143
    28  O    7.432620   6.943092   7.347066   6.224601   7.457319
    29  H    6.517125   6.081858   6.383002   5.365188   6.665938
    30  H    7.336158   6.713136   7.430780   6.045844   7.099086
    31  O    6.577441   5.667655   7.004458   5.094070   5.801142
    32  H    5.932859   5.145704   6.422022   4.767005   5.265623
    33  H    6.091738   5.180017   6.386651   4.438922   5.458050
    34  O    4.205105   4.422804   3.403169   4.091317   5.247697
    35  H    4.003749   3.957686   3.287792   3.379381   4.818909
    36  H    3.399157   3.834772   2.616819   3.767111   4.654616
    37  O    4.714033   5.597796   5.516617   6.907668   5.321861
    38  H    4.097975   4.809784   5.066668   6.134433   4.436859
    39  H    4.148945   5.218690   4.797289   6.485435   5.121626
                    6          7          8          9         10
     6  C    0.000000
     7  C    3.798631   0.000000
     8  H    2.705410   2.144398   0.000000
     9  C    4.437320   1.514133   3.513379   0.000000
    10  H    4.719366   3.491980   4.999703   2.203782   0.000000
    11  O    1.256238   4.752642   3.894858   5.096081   4.837207
    12  O    1.270269   4.173830   2.503684   5.143901   5.799821
    13  H    4.667310   1.085698   2.477265   2.208436   4.369360
    14  O    5.456606   2.447143   4.325745   1.470434   2.708344
    15  H    5.132590   2.133746   4.195049   1.099804   2.541664
    16  H    6.144451   2.707265   4.672996   1.968541   3.490109
    17  C    3.096193   3.447539   3.466280   3.919921   4.535069
    18  C    3.988840   2.799056   3.583466   3.093635   4.060102
    19  H    3.384593   4.322842   4.386715   4.533337   4.655379
    20  H    2.748771   3.606753   2.982388   4.427545   5.268274
    21  C    5.086388   3.698247   4.960610   3.335096   3.728941
    22  O    4.327039   2.091645   3.030604   2.798091   4.413253
    23  O    5.905883   3.704818   5.392801   3.039154   3.589692
    24  O    5.404653   4.788295   5.808653   4.384054   4.265572
    25  O    3.747873   3.913251   2.411179   5.290217   6.776718
    26  H    3.759163   3.199465   2.208800   4.525235   6.096984
    27  H    2.844099   3.826218   2.076454   5.122923   6.373121
    28  O    8.637548   6.410262   8.052882   5.787044   6.165214
    29  H    7.756025   5.436732   7.089241   4.860330   5.401586
    30  H    8.488057   6.587584   8.206484   5.843933   5.877099
    31  O    7.640351   6.356377   7.916440   5.383154   4.704117
    32  H    6.899914   5.912336   7.285699   5.110917   4.549565
    33  H    7.286491   5.614597   7.319114   4.573011   4.062557
    34  O    5.160307   3.212735   3.683798   3.516561   4.727599
    35  H    5.172264   2.799154   3.821670   2.741818   3.922227
    36  H    4.247715   2.765282   2.832896   3.334144   4.556166
    37  O    3.184159   6.878387   5.268562   7.609729   7.664613
    38  H    2.605507   6.383481   5.002463   6.959933   6.826705
    39  H    2.655056   6.168592   4.444572   7.030673   7.333318
                   11         12         13         14         15
    11  O    0.000000
    12  O    2.268207   0.000000
    13  H    5.698847   4.837598   0.000000
    14  O    6.032312   6.167200   2.685099   0.000000
    15  H    5.808289   5.786917   2.608946   2.099896   0.000000
    16  H    6.827606   6.734833   2.588256   0.966994   2.210838
    17  C    3.869114   3.351912   4.223306   5.370322   3.907261
    18  C    4.822017   4.316661   3.447572   4.537843   2.794793
    19  H    3.832778   3.807222   5.183969   5.982391   4.476775
    20  H    3.706460   2.606070   4.266381   5.803050   4.571612
    21  C    5.670844   5.643158   4.348348   4.677026   2.659857
    22  O    5.348348   4.467352   2.397814   4.071812   2.552105
    23  O    6.514670   6.500955   4.172534   4.129493   2.064977
    24  O    5.788063   6.008557   5.526554   5.723421   3.793341
    25  O    4.959348   2.880637   4.022556   6.349262   5.589079
    26  H    4.984397   3.186697   3.315142   5.641619   4.716291
    27  H    4.031720   1.901667   4.154198   6.198932   5.553675
    28  O    9.223339   9.125663   6.620059   6.601119   4.708811
    29  H    8.389031   8.234957   5.656241   5.730922   3.786785
    30  H    8.952700   9.071115   6.943585   6.708821   4.813591
    31  O    7.850335   8.439567   6.982249   6.279759   4.560594
    32  H    7.134697   7.644846   6.594809   6.191430   4.348958
    33  H    7.582172   8.086489   6.186488   5.391619   3.703384
    34  O    5.791273   5.564378   3.160552   2.854813   4.492304
    35  H    5.770522   5.725039   2.853739   1.902802   3.688612
    36  H    4.934650   4.605532   2.892615   3.090146   4.362237
    37  O    2.852493   2.873092   7.614300   8.532690   8.312376
    38  H    1.990448   2.694505   7.206874   7.874253   7.671693
    39  H    2.724363   2.040980   6.841391   7.988036   7.709934
                   16         17         18         19         20
    16  H    0.000000
    17  C    5.751803   0.000000
    18  C    4.755853   1.385169   0.000000
    19  H    6.441826   1.082725   2.129608   0.000000
    20  H    6.170353   1.079046   2.157356   1.858485   0.000000
    21  C    4.863789   2.533573   1.554640   2.690761   3.532406
    22  O    4.101037   2.341890   1.294680   3.301397   2.651108
    23  O    4.141623   3.636060   2.415072   3.920727   4.553741
    24  O    6.001112   2.803660   2.390968   2.460219   3.856688
    25  O    6.520644   3.402973   3.818596   4.322757   2.469992
    26  H    5.763492   2.828542   2.974737   3.849776   2.112152
    27  H    6.512811   3.141921   3.809378   3.958993   2.150194
    28  O    6.351947   5.944075   4.821039   6.041667   6.835465
    29  H    5.501122   5.131451   3.936496   5.329718   6.006102
    30  H    6.588235   5.852076   4.854664   5.785107   6.821790
    31  O    6.439048   5.421679   4.692821   5.100126   6.491514
    32  H    6.407160   4.556058   3.952494   4.173115   5.623912
    33  H    5.502750   5.167417   4.267658   5.022800   6.216033
    34  O    3.221268   6.343728   5.954865   7.097240   6.305922
    35  H    2.351994   6.000443   5.473719   6.708450   6.124016
    36  H    3.567853   5.620240   5.391340   6.374568   5.497160
    37  O    9.242591   5.616847   6.820490   5.599623   4.987372
    38  H    8.633340   5.171840   6.336787   5.085917   4.698682
    39  H    8.634905   4.978371   6.145214   5.111164   4.242177
                   21         22         23         24         25
    21  C    0.000000
    22  O    2.459877   0.000000
    23  O    1.269751   2.776085   0.000000
    24  O    1.259639   3.539556   2.262328   0.000000
    25  O    5.368275   3.372633   6.060729   6.016619   0.000000
    26  H    4.510010   2.418250   5.133515   5.255720   0.969657
    27  H    5.344412   3.584732   6.121051   5.904284   0.982107
    28  O    3.573216   5.112800   2.889464   3.798021   8.244326
    29  H    2.759037   4.168691   1.983660   3.230945   7.365670
    30  H    3.432317   5.364142   2.898465   3.386589   8.476608
    31  O    3.145872   5.505727   2.912961   2.730573   8.505388
    32  H    2.453167   4.900969   2.604901   1.795050   7.721315
    33  H    2.749530   4.918713   2.199144   2.742085   8.071092
    34  O    6.701970   5.279791   6.506042   7.718029   5.998401
    35  H    6.037975   4.861084   5.737997   7.063208   6.129484
    36  H    6.283986   4.785669   6.264903   7.244044   5.193614
    37  O    7.929112   7.225085   8.911906   7.959026   5.426623
    38  H    7.333089   6.819955   8.288056   7.342605   5.479326
    39  H    7.363683   6.449831   8.327447   7.494861   4.467340
                   26         27         28         29         30
    26  H    0.000000
    27  H    1.527801   0.000000
    28  O    7.312021   8.497850   0.000000
    29  H    6.422049   7.604790   0.975903   0.000000
    30  H    7.565750   8.628309   0.974695   1.477339   0.000000
    31  O    7.655647   8.425699   2.884964   2.854930   2.008331
    32  H    6.907436   7.623835   3.076810   2.865051   2.301397
    33  H    7.186607   8.016779   2.661547   2.398466   2.019707
    34  O    5.662722   5.738720   9.144524   8.209073   9.305008
    35  H    5.655940   5.889810   8.341796   7.426560   8.477782
    36  H    4.923502   4.855296   9.006354   8.049303   9.134039
    37  O    5.924670   4.489320  11.481598  10.657027  11.268302
    38  H    5.829113   4.506986  10.899766  10.081308  10.640022
    39  H    5.002349   3.539320  10.891425  10.045086  10.746800
                   31         32         33         34         35
    31  O    0.000000
    32  H    0.991354   0.000000
    33  H    0.972737   1.458918   0.000000
    34  O    8.860430   8.594659   8.038790   0.000000
    35  H    8.010920   7.806369   7.168785   0.975803   0.000000
    36  H    8.642467   8.276783   7.878316   0.967070   1.500762
    37  O   10.321920   9.497475  10.135715   7.664265   7.924197
    38  H    9.587528   8.798156   9.400029   7.188131   7.363338
    39  H    9.942647   9.107363   9.707755   7.114724   7.384916
                   36         37         38         39
    36  H    0.000000
    37  O    6.729283   0.000000
    38  H    6.277167   0.976891   0.000000
    39  H    6.157620   0.975217   1.445835   0.000000
 Stoichiometry    C10H18O11(2-)
 Framework group  C1[X(C10H18O11)]
 Deg. of freedom   111
 Full point group                 C1      NOp   1
 Largest Abelian subgroup         C1      NOp   1
 Largest concise Abelian subgroup C1      NOp   1
                         Standard orientation:                         
 ---------------------------------------------------------------------
 Center     Atomic      Atomic             Coordinates (Angstroms)
 Number     Number       Type             X           Y           Z
 ---------------------------------------------------------------------
      1          6           0       -1.520228    0.126858   -0.463007
      2          6           0       -0.640656    0.344212   -1.611685
      3          6           0       -1.403791    0.986427    0.627699
      4          6           0        0.377422    1.219842   -1.568663
      5          1           0       -0.873935   -0.230128   -2.501640
      6          6           0       -2.772787   -0.744189   -0.603246
      7          6           0       -0.208342    1.663855    0.830122
      8          1           0       -2.131771    0.926375    1.425930
      9          6           0        0.753154    1.933570   -0.308025
     10          1           0        1.019939    1.391314   -2.427327
     11          8           0       -3.085375   -1.081702   -1.772223
     12          8           0       -3.382225   -1.023472    0.475721
     13          1           0       -0.092096    2.305696    1.698032
     14          8           0        0.806257    3.374662   -0.595444
     15          1           0        1.754914    1.597413   -0.002994
     16          1           0        1.338784    3.765761    0.110625
     17          6           0       -0.118664   -1.775643    0.612545
     18          6           0        0.909528   -0.900635    0.922181
     19          1           0        0.055638   -2.542318   -0.131849
     20          1           0       -1.015616   -1.830824    1.209850
     21          6           0        2.251202   -1.011558    0.144676
     22          8           0        0.752408    0.062763    1.772695
     23          8           0        3.033365   -0.012439    0.192116
     24          8           0        2.455722   -2.103946   -0.448240
     25          8           0       -2.223109   -0.803006    3.103632
     26          1           0       -1.320751   -0.546298    2.858507
     27          1           0       -2.666826   -0.910019    2.234036
     28          8           0        5.728288   -0.752478    0.926100
     29          1           0        4.815148   -0.410675    0.967722
     30          1           0        5.677680   -1.191657    0.057428
     31          8           0        4.759356   -1.373514   -1.719368
     32          1           0        3.991859   -1.880516   -1.349664
     33          1           0        4.465578   -0.501696   -1.403386
     34          8           0       -1.835198    4.297637   -0.029063
     35          1           0       -0.942558    4.087440   -0.362533
     36          1           0       -2.211265    3.412153    0.069506
     37          8           0       -5.483434   -2.381190   -0.937142
     38          1           0       -4.801727   -2.067657   -1.562673
     39          1           0       -5.032462   -2.057321   -0.135405
 ---------------------------------------------------------------------
 Rotational constants (GHZ):      0.3468005      0.1699025      0.1454608
 Standard basis: 6-311+G(2d,2p) (5D, 7F)
 There are   771 symmetry adapted cartesian basis functions of A   symmetry.
 There are   729 symmetry adapted basis functions of A   symmetry.
   729 basis functions,  1080 primitive gaussians,   771 cartesian basis functions
    84 alpha electrons       84 beta electrons
       nuclear repulsion energy      1873.8052375593 Hartrees.
 NAtoms=   39 NActive=   39 NUniq=   39 SFac= 1.00D+00 NAtFMM=   60 NAOKFM=F Big=F
 Integral buffers will be    131072 words long.
 Raffenetti 2 integral format.
 Two-electron integral symmetry is turned on.
 Nuclear repulsion after empirical dispersion term =     1873.7521100471 Hartrees.
 One-electron integrals computed using PRISM.
 PrsmSu:  requested number of processors reduced to:   7 ShMem   1 Linda.
 NBasis=   729 RedAO= T EigKep=  1.71D-06  NBF=   729
 NBsUse=   728 1.00D-06 EigRej=  6.95D-07 NBFU=   728
 ExpMin= 4.38D-02 ExpMax= 8.59D+03 ExpMxC= 1.30D+03 IAcc=2 IRadAn=         4 AccDes= 0.00D+00
 Harris functional with IExCor=  402 and IRadAn=       4 diagonalized for initial guess.
 HarFok:  IExCor=  402 AccDes= 0.00D+00 IRadAn=         4 IDoV= 1 UseB2=F ITyADJ=14
 ICtDFT=  3500011 ScaDFX=  1.000000  1.000000  1.000000  1.000000
 CalDSu:  requested number of processors reduced to:  16 ShMem   4 Linda.
 FoFCou: FMM=F IPFlag=           0 FMFlag=      100000 FMFlg1=           0
         NFxFlg=           0 DoJE=T BraDBF=F KetDBF=T FulRan=T
         wScrn=  0.000000 ICntrl=     500 IOpCl=  0 I1Cent=   200000004 NGrid=           0
         NMat0=    1 NMatS0=      1 NMatT0=    0 NMatD0=    1 NMtDS0=    0 NMtDT0=    0
 Petite list used in FoFCou.
 CoulSu:  requested number of processors reduced to:  19 ShMem   4 Linda.
 CoulSu:  requested number of processors reduced to:  19 ShMem   4 Linda.
 Requested convergence on RMS density matrix=1.00D-08 within 128 cycles.
 Requested convergence on MAX density matrix=1.00D-06.
 Requested convergence on             energy=1.00D-06.
 No special actions if energy rises.
 CalDSu:  requested number of processors reduced to:  16 ShMem   4 Linda.
 CalDSu:  requested number of processors reduced to:  16 ShMem   4 Linda.
 CalDSu:  requested number of processors reduced to:  16 ShMem   4 Linda.
 CalDSu:  requested number of processors reduced to:  16 ShMem   4 Linda.
 CalDSu:  requested number of processors reduced to:  16 ShMem   4 Linda.
 CalDSu:  requested number of processors reduced to:  16 ShMem   4 Linda.
 CalDSu:  requested number of processors reduced to:  16 ShMem   4 Linda.
 CalDSu:  requested number of processors reduced to:  16 ShMem   4 Linda.
 CalDSu:  requested number of processors reduced to:  16 ShMem   4 Linda.
 CalDSu:  requested number of processors reduced to:  16 ShMem   4 Linda.
 CalDSu:  requested number of processors reduced to:  16 ShMem   4 Linda.
 CalDSu:  requested number of processors reduced to:  16 ShMem   4 Linda.
 CalDSu:  requested number of processors reduced to:  16 ShMem   4 Linda.
 CalDSu:  requested number of processors reduced to:  16 ShMem   4 Linda.
 CalDSu:  requested number of processors reduced to:  16 ShMem   4 Linda.
 CalDSu:  requested number of processors reduced to:  16 ShMem   4 Linda.
 SCF Done:  E(RB3LYP) =  -1219.92812497     A.U. after   16 cycles
            NFock= 16  Conv=0.68D-08     -V/T= 2.0037

 **********************************************************************

            Population analysis using the SCF density.

 **********************************************************************

 Orbital symmetries:
       Occupied  (A) (A) (A) (A) (A) (A) (A) (A) (A) (A) (A) (A)
                 (A) (A) (A) (A) (A) (A) (A) (A) (A) (A) (A) (A)
                 (A) (A) (A) (A) (A) (A) (A) (A) (A) (A) (A) (A)
                 (A) (A) (A) (A) (A) (A) (A) (A) (A) (A) (A) (A)
                 (A) (A) (A) (A) (A) (A) (A) (A) (A) (A) (A) (A)
                 (A) (A) (A) (A) (A) (A) (A) (A) (A) (A) (A) (A)
                 (A) (A) (A) (A) (A) (A) (A) (A) (A) (A) (A) (A)
       Virtual   (A) (A) (A) (A) (A) (A) (A) (A) (A) (A) (A) (A)
                 (A) (A) (A) (A) (A) (A) (A) (A) (A) (A) (A) (A)
                 (A) (A) (A) (A) (A) (A) (A) (A) (A) (A) (A) (A)
                 (A) (A) (A) (A) (A) (A) (A) (A) (A) (A) (A) (A)
                 (A) (A) (A) (A) (A) (A) (A) (A) (A) (A) (A) (A)
                 (A) (A) (A) (A) (A) (A) (A) (A) (A) (A) (A) (A)
                 (A) (A) (A) (A) (A) (A) (A) (A) (A) (A) (A) (A)
                 (A) (A) (A) (A) (A) (A) (A) (A) (A) (A) (A) (A)
                 (A) (A) (A) (A) (A) (A) (A) (A) (A) (A) (A) (A)
                 (A) (A) (A) (A) (A) (A) (A) (A) (A) (A) (A) (A)
                 (A) (A) (A) (A) (A) (A) (A) (A) (A) (A) (A) (A)
                 (A) (A) (A) (A) (A) (A) (A) (A) (A) (A) (A) (A)
                 (A) (A) (A) (A) (A) (A) (A) (A) (A) (A) (A) (A)
                 (A) (A) (A) (A) (A) (A) (A) (A) (A) (A) (A) (A)
                 (A) (A) (A) (A) (A) (A) (A) (A) (A) (A) (A) (A)
                 (A) (A) (A) (A) (A) (A) (A) (A) (A) (A) (A) (A)
                 (A) (A) (A) (A) (A) (A) (A) (A) (A) (A) (A) (A)
                 (A) (A) (A) (A) (A) (A) (A) (A) (A) (A) (A) (A)
                 (A) (A) (A) (A) (A) (A) (A) (A) (A) (A) (A) (A)
                 (A) (A) (A) (A) (A) (A) (A) (A) (A) (A) (A) (A)
                 (A) (A) (A) (A) (A) (A) (A) (A) (A) (A) (A) (A)
                 (A) (A) (A) (A) (A) (A) (A) (A) (A) (A) (A) (A)
                 (A) (A) (A) (A) (A) (A) (A) (A) (A) (A) (A) (A)
                 (A) (A) (A) (A) (A) (A) (A) (A) (A) (A) (A) (A)
                 (A) (A) (A) (A) (A) (A) (A) (A) (A) (A) (A) (A)
                 (A) (A) (A) (A) (A) (A) (A) (A) (A) (A) (A) (A)
                 (A) (A) (A) (A) (A) (A) (A) (A) (A) (A) (A) (A)
                 (A) (A) (A) (A) (A) (A) (A) (A) (A) (A) (A) (A)
                 (A) (A) (A) (A) (A) (A) (A) (A) (A) (A) (A) (A)
                 (A) (A) (A) (A) (A) (A) (A) (A) (A) (A) (A) (A)
                 (A) (A) (A) (A) (A) (A) (A) (A) (A) (A) (A) (A)
                 (A) (A) (A) (A) (A) (A) (A) (A) (A) (A) (A) (A)
                 (A) (A) (A) (A) (A) (A) (A) (A) (A) (A) (A) (A)
                 (A) (A) (A) (A) (A) (A) (A) (A) (A) (A) (A) (A)
                 (A) (A) (A) (A) (A) (A) (A) (A) (A) (A) (A) (A)
                 (A) (A) (A) (A) (A) (A) (A) (A) (A) (A) (A) (A)
                 (A) (A) (A) (A) (A) (A) (A) (A) (A) (A) (A) (A)
                 (A) (A) (A) (A) (A) (A) (A) (A) (A) (A) (A) (A)
                 (A) (A) (A) (A) (A) (A) (A) (A) (A) (A) (A) (A)
                 (A) (A) (A) (A) (A) (A) (A) (A) (A) (A) (A) (A)
                 (A) (A) (A) (A) (A) (A) (A) (A) (A) (A) (A) (A)
                 (A) (A) (A) (A) (A) (A) (A) (A) (A) (A) (A) (A)
                 (A) (A) (A) (A) (A) (A) (A) (A) (A) (A) (A) (A)
                 (A) (A) (A) (A) (A) (A) (A) (A) (A) (A) (A) (A)
                 (A) (A) (A) (A) (A) (A) (A) (A) (A) (A) (A) (A)
                 (A) (A) (A) (A) (A) (A) (A) (A) (A) (A) (A) (A)
                 (A) (A) (A) (A) (A) (A) (A) (A) (A) (A) (A) (A)
                 (A) (A) (A) (A) (A) (A) (A) (A) (A) (A) (A) (A)
                 (A) (A) (A) (A) (A) (A) (A) (A) (A) (A) (A) (A)
                 (A) (A) (A) (A) (A) (A) (A) (A) (A) (A) (A) (A)
                 (A) (A) (A) (A) (A) (A) (A) (A) (A) (A) (A) (A)
                 (A) (A) (A) (A) (A) (A) (A) (A) (A) (A) (A) (A)
                 (A) (A) (A) (A) (A) (A) (A) (A) (A) (A) (A) (A)
                 (A) (A) (A) (A) (A) (A) (A) (A)
 The electronic state is 1-A.
 Alpha  occ. eigenvalues --  -18.97498 -18.93699 -18.91812 -18.90351 -18.89900
 Alpha  occ. eigenvalues --  -18.89454 -18.88614 -18.87293 -18.87261 -18.86946
 Alpha  occ. eigenvalues --  -18.86775 -10.06713 -10.05761 -10.04891 -10.03042
 Alpha  occ. eigenvalues --  -10.02307 -10.01291  -9.99121  -9.99021  -9.98333
 Alpha  occ. eigenvalues --   -9.96763  -0.86494  -0.83489  -0.83349  -0.82355
 Alpha  occ. eigenvalues --   -0.80640  -0.78962  -0.78835  -0.77697  -0.77247
 Alpha  occ. eigenvalues --   -0.74646  -0.74022  -0.66622  -0.57451  -0.56513
 Alpha  occ. eigenvalues --   -0.52948  -0.45189  -0.42375  -0.39786  -0.35890
 Alpha  occ. eigenvalues --   -0.35346  -0.34105  -0.31868  -0.30754  -0.29639
 Alpha  occ. eigenvalues --   -0.28936  -0.28664  -0.28452  -0.27503  -0.26443
 Alpha  occ. eigenvalues --   -0.26042  -0.25063  -0.24847  -0.24173  -0.23215
 Alpha  occ. eigenvalues --   -0.22200  -0.21470  -0.21245  -0.20758  -0.19911
 Alpha  occ. eigenvalues --   -0.19785  -0.19333  -0.18555  -0.18174  -0.17640
 Alpha  occ. eigenvalues --   -0.16976  -0.16669  -0.15422  -0.13836  -0.13012
 Alpha  occ. eigenvalues --   -0.11918  -0.09943  -0.09668  -0.09464  -0.09092
 Alpha  occ. eigenvalues --   -0.08310  -0.06594  -0.06158  -0.05910  -0.05531
 Alpha  occ. eigenvalues --   -0.05020  -0.04529  -0.03186  -0.02381
 Alpha virt. eigenvalues --    0.09528   0.15626   0.16757   0.18374   0.18687
 Alpha virt. eigenvalues --    0.19494   0.20319   0.20913   0.21288   0.21893
 Alpha virt. eigenvalues --    0.22560   0.22910   0.23896   0.24437   0.24769
 Alpha virt. eigenvalues --    0.25255   0.26170   0.26340   0.26895   0.27126
 Alpha virt. eigenvalues --    0.28354   0.28554   0.29100   0.29368   0.29913
 Alpha virt. eigenvalues --    0.30133   0.30519   0.30969   0.31142   0.31489
 Alpha virt. eigenvalues --    0.31728   0.32580   0.33312   0.33354   0.33744
 Alpha virt. eigenvalues --    0.34074   0.34170   0.34684   0.34946   0.35409
 Alpha virt. eigenvalues --    0.35488   0.35892   0.36242   0.36421   0.37024
 Alpha virt. eigenvalues --    0.37276   0.37666   0.37876   0.38024   0.38445
 Alpha virt. eigenvalues --    0.38718   0.38990   0.39421   0.39815   0.39905
 Alpha virt. eigenvalues --    0.40268   0.40571   0.41080   0.41249   0.41713
 Alpha virt. eigenvalues --    0.42197   0.42331   0.42529   0.42862   0.43034
 Alpha virt. eigenvalues --    0.43191   0.43814   0.44558   0.44578   0.44889
 Alpha virt. eigenvalues --    0.45170   0.45380   0.46037   0.46129   0.46487
 Alpha virt. eigenvalues --    0.47029   0.47198   0.47669   0.48190   0.48515
 Alpha virt. eigenvalues --    0.48852   0.49614   0.49970   0.50311   0.50623
 Alpha virt. eigenvalues --    0.50795   0.51190   0.51617   0.52142   0.52507
 Alpha virt. eigenvalues --    0.52640   0.53199   0.53358   0.53693   0.54092
 Alpha virt. eigenvalues --    0.54831   0.55349   0.56161   0.56652   0.57173
 Alpha virt. eigenvalues --    0.58224   0.58452   0.59044   0.59868   0.60387
 Alpha virt. eigenvalues --    0.60825   0.61571   0.62065   0.62694   0.63067
 Alpha virt. eigenvalues --    0.64126   0.64725   0.64946   0.65173   0.66042
 Alpha virt. eigenvalues --    0.67133   0.67757   0.68444   0.68860   0.69390
 Alpha virt. eigenvalues --    0.70063   0.70412   0.71122   0.71538   0.72083
 Alpha virt. eigenvalues --    0.72705   0.73180   0.73568   0.74228   0.74506
 Alpha virt. eigenvalues --    0.75338   0.75849   0.76129   0.77208   0.77997
 Alpha virt. eigenvalues --    0.78569   0.78725   0.79042   0.79843   0.80078
 Alpha virt. eigenvalues --    0.80251   0.81065   0.82058   0.82356   0.83060
 Alpha virt. eigenvalues --    0.83222   0.83776   0.84253   0.84439   0.85266
 Alpha virt. eigenvalues --    0.85477   0.85981   0.86158   0.86277   0.87096
 Alpha virt. eigenvalues --    0.87451   0.88396   0.88816   0.89086   0.89942
 Alpha virt. eigenvalues --    0.90164   0.90722   0.90964   0.92247   0.92872
 Alpha virt. eigenvalues --    0.93486   0.94156   0.94484   0.95249   0.96003
 Alpha virt. eigenvalues --    0.96767   0.96906   0.97695   0.98383   0.99463
 Alpha virt. eigenvalues --    1.00045   1.01399   1.01655   1.01934   1.02420
 Alpha virt. eigenvalues --    1.03485   1.04166   1.04588   1.04786   1.06073
 Alpha virt. eigenvalues --    1.06631   1.07201   1.07779   1.08166   1.08511
 Alpha virt. eigenvalues --    1.09405   1.10253   1.10877   1.11330   1.11616
 Alpha virt. eigenvalues --    1.12808   1.12870   1.14062   1.14208   1.14531
 Alpha virt. eigenvalues --    1.14976   1.15802   1.16011   1.16417   1.16694
 Alpha virt. eigenvalues --    1.17756   1.18560   1.18796   1.19720   1.20610
 Alpha virt. eigenvalues --    1.21440   1.22396   1.22926   1.24502   1.24894
 Alpha virt. eigenvalues --    1.25271   1.25809   1.26500   1.27272   1.27345
 Alpha virt. eigenvalues --    1.28529   1.28906   1.29157   1.29477   1.29675
 Alpha virt. eigenvalues --    1.30486   1.31151   1.31596   1.31873   1.32101
 Alpha virt. eigenvalues --    1.32880   1.33427   1.33905   1.34564   1.35587
 Alpha virt. eigenvalues --    1.35836   1.36930   1.37204   1.37421   1.39369
 Alpha virt. eigenvalues --    1.39815   1.40420   1.40938   1.41391   1.41839
 Alpha virt. eigenvalues --    1.42566   1.43529   1.43764   1.44498   1.44569
 Alpha virt. eigenvalues --    1.45056   1.45919   1.47260   1.47522   1.47924
 Alpha virt. eigenvalues --    1.48428   1.49329   1.49530   1.50057   1.50545
 Alpha virt. eigenvalues --    1.50963   1.51740   1.52310   1.52761   1.54485
 Alpha virt. eigenvalues --    1.54926   1.55396   1.55685   1.55829   1.56555
 Alpha virt. eigenvalues --    1.57903   1.58349   1.58868   1.60026   1.61133
 Alpha virt. eigenvalues --    1.61855   1.62337   1.63560   1.64041   1.64141
 Alpha virt. eigenvalues --    1.64836   1.65231   1.65983   1.66086   1.67561
 Alpha virt. eigenvalues --    1.67789   1.69243   1.69687   1.70402   1.71254
 Alpha virt. eigenvalues --    1.72582   1.73272   1.74066   1.74868   1.75464
 Alpha virt. eigenvalues --    1.75466   1.78364   1.78869   1.80156   1.80294
 Alpha virt. eigenvalues --    1.82280   1.82649   1.83267   1.84578   1.85038
 Alpha virt. eigenvalues --    1.86437   1.86876   1.88145   1.88673   1.89690
 Alpha virt. eigenvalues --    1.90940   1.91622   1.92135   1.93497   1.95399
 Alpha virt. eigenvalues --    1.96243   1.97056   1.99362   2.00235   2.01779
 Alpha virt. eigenvalues --    2.02307   2.02713   2.04385   2.04826   2.05284
 Alpha virt. eigenvalues --    2.06354   2.06751   2.07079   2.07439   2.08398
 Alpha virt. eigenvalues --    2.09418   2.09945   2.10142   2.11390   2.11945
 Alpha virt. eigenvalues --    2.13326   2.14189   2.14692   2.14977   2.17094
 Alpha virt. eigenvalues --    2.17920   2.19551   2.20610   2.23571   2.24358
 Alpha virt. eigenvalues --    2.24938   2.25691   2.27376   2.30317   2.31049
 Alpha virt. eigenvalues --    2.33468   2.33949   2.35780   2.38999   2.41381
 Alpha virt. eigenvalues --    2.45066   2.45337   2.45926   2.47444   2.48762
 Alpha virt. eigenvalues --    2.49546   2.50549   2.51125   2.51461   2.52921
 Alpha virt. eigenvalues --    2.54179   2.55335   2.55629   2.57313   2.57949
 Alpha virt. eigenvalues --    2.59583   2.63809   2.63928   2.66153   2.74954
 Alpha virt. eigenvalues --    2.75132   2.79796   2.80607   2.81644   2.83261
 Alpha virt. eigenvalues --    2.85289   2.86733   2.87616   2.90068   2.92890
 Alpha virt. eigenvalues --    2.95585   2.99292   2.99591   3.01044   3.03417
 Alpha virt. eigenvalues --    3.04986   3.08809   3.10534   3.11311   3.15604
 Alpha virt. eigenvalues --    3.16957   3.18251   3.18665   3.20648   3.20955
 Alpha virt. eigenvalues --    3.21590   3.22509   3.23916   3.24541   3.27576
 Alpha virt. eigenvalues --    3.29144   3.29416   3.30142   3.31971   3.33337
 Alpha virt. eigenvalues --    3.35253   3.37590   3.40305   3.40931   3.44118
 Alpha virt. eigenvalues --    3.44859   3.46563   3.47794   3.48399   3.50732
 Alpha virt. eigenvalues --    3.51382   3.53067   3.56142   3.57337   3.59752
 Alpha virt. eigenvalues --    3.61195   3.62803   3.64887   3.65084   3.65727
 Alpha virt. eigenvalues --    3.67739   3.68365   3.69525   3.70724   3.72873
 Alpha virt. eigenvalues --    3.73518   3.74212   3.76228   3.76576   3.78087
 Alpha virt. eigenvalues --    3.78509   3.79270   3.80956   3.82516   3.84604
 Alpha virt. eigenvalues --    3.84866   3.85884   3.87178   3.89496   3.90179
 Alpha virt. eigenvalues --    3.91141   3.92389   3.93887   3.94224   3.96148
 Alpha virt. eigenvalues --    3.96592   3.97260   3.97998   3.98338   3.98669
 Alpha virt. eigenvalues --    4.00013   4.00133   4.01241   4.02550   4.03203
 Alpha virt. eigenvalues --    4.04415   4.04764   4.06810   4.06904   4.07497
 Alpha virt. eigenvalues --    4.08078   4.08845   4.09152   4.09764   4.11365
 Alpha virt. eigenvalues --    4.12339   4.12937   4.13853   4.15487   4.16123
 Alpha virt. eigenvalues --    4.17071   4.18460   4.19830   4.21094   4.21604
 Alpha virt. eigenvalues --    4.22367   4.24032   4.24890   4.26638   4.27369
 Alpha virt. eigenvalues --    4.29328   4.29947   4.30792   4.31100   4.32753
 Alpha virt. eigenvalues --    4.33471   4.35209   4.35933   4.37855   4.38935
 Alpha virt. eigenvalues --    4.39822   4.40482   4.41808   4.42081   4.42356
 Alpha virt. eigenvalues --    4.44028   4.46062   4.47167   4.48927   4.50737
 Alpha virt. eigenvalues --    4.51657   4.52215   4.54226   4.54772   4.56245
 Alpha virt. eigenvalues --    4.56430   4.57544   4.58078   4.60710   4.63233
 Alpha virt. eigenvalues --    4.63807   4.66329   4.67820   4.73339   4.78500
 Alpha virt. eigenvalues --    4.81196   4.91095   5.08107   5.10536   5.15581
 Alpha virt. eigenvalues --    5.23190   5.24232   5.26030   5.26183   5.26967
 Alpha virt. eigenvalues --    5.29468   5.30165   5.31112   5.32638   5.34708
 Alpha virt. eigenvalues --    5.35278   5.35803   5.35925   5.42638   5.46904
 Alpha virt. eigenvalues --    5.51221   5.58291   5.58844   5.60418   5.63834
 Alpha virt. eigenvalues --    5.68850   5.75118   5.84089   5.87895   5.90000
 Alpha virt. eigenvalues --    5.95796   5.96683   6.03859   6.09025   6.14263
 Alpha virt. eigenvalues --    6.22089   6.26103   6.27471   6.31519   6.32441
 Alpha virt. eigenvalues --    6.32927   6.34214   6.40867   7.00641   7.01779
 Alpha virt. eigenvalues --    7.05715   7.08145   7.08341   7.08731   7.10734
 Alpha virt. eigenvalues --    7.11048   7.11788   7.12654   7.12993   7.13353
 Alpha virt. eigenvalues --    7.14565   7.14693   7.15515   7.16134   7.16545
 Alpha virt. eigenvalues --    7.17672   7.22268   7.22767   7.23332   7.25079
 Alpha virt. eigenvalues --    7.26495   7.28079   7.28794   7.30698   7.31878
 Alpha virt. eigenvalues --    7.32749   7.34749   7.36422   7.37697   7.39295
 Alpha virt. eigenvalues --    7.39712   7.41248   7.41661   7.42666   7.45797
 Alpha virt. eigenvalues --    7.48590   7.50797   7.51793   7.52893   7.54545
 Alpha virt. eigenvalues --    7.55275   7.56895   7.57607   7.61210   7.62525
 Alpha virt. eigenvalues --    7.64386   7.65439   7.68382   7.71625   7.73532
 Alpha virt. eigenvalues --    7.73727   7.74377   7.79352  24.01594  24.11454
 Alpha virt. eigenvalues --   24.13955  24.15927  24.19314  24.28108  24.29894
 Alpha virt. eigenvalues --   24.40538  24.41602  24.47976  50.11707  50.14124
 Alpha virt. eigenvalues --   50.15597  50.16222  50.18715  50.21352  50.25643
 Alpha virt. eigenvalues --   50.25936  50.27417  50.31129  50.33484
          Condensed to atoms (all electrons):
               1          2          3          4          5          6
     1  C   10.969651  -1.606289  -0.426827   0.018822  -0.013425  -2.034889
     2  C   -1.606289  15.719509  -5.190066  -4.282695   0.294221  -0.520412
     3  C   -0.426827  -5.190066  12.535058   2.785084   0.045855  -1.173551
     4  C    0.018822  -4.282695   2.785084  10.068030   0.033084  -0.345556
     5  H   -0.013425   0.294221   0.045855   0.033084   0.530690   0.031589
     6  C   -2.034889  -0.520412  -1.173551  -0.345556   0.031589   8.927764
     7  C   -1.079118   1.576202  -1.003095  -1.231400  -0.010762  -0.015274
     8  H   -0.045800   0.016132   0.402562  -0.006279  -0.000305   0.042108
     9  C    0.220979   0.099295  -1.705781  -1.007507  -0.005363  -0.224870
    10  H    0.007119   0.110333  -0.057083   0.238493  -0.009407   0.014491
    11  O    0.139631  -0.042822  -0.036586   0.050465  -0.005083   0.293104
    12  O    0.005809   0.034579  -0.072999  -0.019182  -0.000046   0.369673
    13  H    0.044781  -0.024470  -0.002604   0.011667   0.000082   0.006966
    14  O   -0.020789   0.115879  -0.054844  -0.117929  -0.000347  -0.007730
    15  H    0.002117  -0.044776   0.003744  -0.002699  -0.000196   0.005157
    16  H   -0.011106  -0.019118   0.007118  -0.026239   0.000026  -0.000137
    17  C   -0.154288   0.300862   0.119563  -0.212244   0.002127  -0.259093
    18  C    0.083782  -0.899032   0.297417   0.519358   0.000474   0.151929
    19  H   -0.019437   0.030049  -0.019256  -0.003847  -0.000072   0.012597
    20  H   -0.006248  -0.000691  -0.021596  -0.003474   0.000003   0.010058
    21  C   -0.006348   0.461784  -0.310563  -0.393462  -0.002733   0.127168
    22  O   -0.011659  -0.045543  -0.092311   0.019229   0.000010   0.020840
    23  O    0.005645  -0.094977   0.038229   0.133898   0.000249  -0.004776
    24  O   -0.010474   0.047357  -0.004521  -0.039644  -0.000306   0.004973
    25  O    0.026551  -0.008727   0.015260   0.003721  -0.000024   0.005575
    26  H   -0.007775   0.000435  -0.018760  -0.004479  -0.000001  -0.002748
    27  H   -0.012222  -0.001215  -0.003200  -0.005523   0.000003  -0.001204
    28  O    0.000107  -0.002886   0.001597   0.001896   0.000001  -0.000081
    29  H    0.000813   0.002619  -0.002078  -0.004400   0.000000   0.000148
    30  H   -0.000143  -0.000142   0.000016   0.000187   0.000000  -0.000014
    31  O   -0.001963   0.001848   0.000700   0.003637  -0.000001  -0.000254
    32  H    0.003287  -0.000648  -0.000169  -0.004188   0.000016   0.000411
    33  H    0.000321  -0.005435   0.000390   0.000835   0.000012  -0.000071
    34  O   -0.005851  -0.062788   0.081285   0.035704   0.000122   0.001487
    35  H    0.016793   0.007683  -0.035221  -0.018182  -0.000050   0.004200
    36  H   -0.007108  -0.019491   0.058744   0.015057  -0.000010   0.008149
    37  O   -0.011548   0.000144  -0.005694   0.000192   0.000154   0.055463
    38  H   -0.019053  -0.003820   0.005330  -0.003019  -0.000062   0.009754
    39  H   -0.012996   0.005755  -0.011493   0.001355  -0.000014   0.018968
               7          8          9         10         11         12
     1  C   -1.079118  -0.045800   0.220979   0.007119   0.139631   0.005809
     2  C    1.576202   0.016132   0.099295   0.110333  -0.042822   0.034579
     3  C   -1.003095   0.402562  -1.705781  -0.057083  -0.036586  -0.072999
     4  C   -1.231400  -0.006279  -1.007507   0.238493   0.050465  -0.019182
     5  H   -0.010762  -0.000305  -0.005363  -0.009407  -0.005083  -0.000046
     6  C   -0.015274   0.042108  -0.224870   0.014491   0.293104   0.369673
     7  C    7.658824  -0.025599   0.027013   0.033724  -0.024516   0.055470
     8  H   -0.025599   0.492332  -0.008209   0.000123   0.000153  -0.001456
     9  C    0.027013  -0.008209   8.199775   0.014849   0.015963   0.003351
    10  H    0.033724   0.000123   0.014849   0.576040   0.000359   0.000030
    11  O   -0.024516   0.000153   0.015963   0.000359   8.295956  -0.072047
    12  O    0.055470  -0.001456   0.003351   0.000030  -0.072047   8.329632
    13  H    0.359792  -0.005338  -0.014011  -0.000269   0.000023  -0.000109
    14  O    0.016869  -0.001022   0.158061   0.005539   0.000071  -0.000073
    15  H   -0.049616  -0.000063   0.470649  -0.006332  -0.000030   0.000006
    16  H    0.036426   0.000023   0.006808  -0.000488   0.000001   0.000000
    17  C    0.204070  -0.010911   0.089481   0.001510  -0.007471   0.019928
    18  C   -0.402997   0.012465  -0.230560  -0.008956  -0.014173  -0.020592
    19  H    0.000472   0.000034   0.000581  -0.000001  -0.000195   0.000264
    20  H    0.002227  -0.000255   0.003184   0.000015  -0.000623  -0.001505
    21  C   -0.073062   0.000776   0.065542   0.008951   0.004403   0.001684
    22  O    0.084272  -0.001322   0.023204  -0.000281  -0.000772   0.000793
    23  O   -0.012100  -0.000022  -0.031501  -0.001903  -0.000015   0.000004
    24  O   -0.006888  -0.000001  -0.000607   0.000711   0.000152   0.000052
    25  O   -0.043378  -0.000557   0.006566  -0.000001  -0.001237  -0.033773
    26  H    0.034938  -0.000586   0.006524   0.000002  -0.000051   0.001423
    27  H    0.021017   0.001223  -0.000317   0.000000   0.001228   0.064622
    28  O    0.000942   0.000000  -0.001134  -0.000008   0.000000   0.000000
    29  H   -0.000918   0.000000   0.001196   0.000025   0.000000   0.000000
    30  H   -0.000086   0.000000   0.000594  -0.000003   0.000000   0.000000
    31  O    0.000560   0.000000  -0.006002   0.000054   0.000001   0.000000
    32  H   -0.000243   0.000000  -0.000623   0.000056  -0.000002   0.000000
    33  H    0.000236   0.000000   0.003497  -0.000115   0.000000   0.000000
    34  O   -0.008465  -0.001078  -0.017165  -0.000039   0.000074   0.000219
    35  H   -0.004756   0.000243   0.033190   0.000178   0.000016  -0.000026
    36  H    0.000920  -0.001693  -0.037417  -0.000003   0.000062  -0.000358
    37  O   -0.000358   0.000210  -0.000004   0.000001  -0.060623  -0.047932
    38  H    0.001573  -0.000045  -0.000220   0.000000   0.059748   0.009272
    39  H   -0.002122   0.000012  -0.000044   0.000000   0.005344   0.040680
              13         14         15         16         17         18
     1  C    0.044781  -0.020789   0.002117  -0.011106  -0.154288   0.083782
     2  C   -0.024470   0.115879  -0.044776  -0.019118   0.300862  -0.899032
     3  C   -0.002604  -0.054844   0.003744   0.007118   0.119563   0.297417
     4  C    0.011667  -0.117929  -0.002699  -0.026239  -0.212244   0.519358
     5  H    0.000082  -0.000347  -0.000196   0.000026   0.002127   0.000474
     6  C    0.006966  -0.007730   0.005157  -0.000137  -0.259093   0.151929
     7  C    0.359792   0.016869  -0.049616   0.036426   0.204070  -0.402997
     8  H   -0.005338  -0.001022  -0.000063   0.000023  -0.010911   0.012465
     9  C   -0.014011   0.158061   0.470649   0.006808   0.089481  -0.230560
    10  H   -0.000269   0.005539  -0.006332  -0.000488   0.001510  -0.008956
    11  O    0.000023   0.000071  -0.000030   0.000001  -0.007471  -0.014173
    12  O   -0.000109  -0.000073   0.000006   0.000000   0.019928  -0.020592
    13  H    0.555231  -0.003457  -0.004494   0.002836  -0.006811   0.000860
    14  O   -0.003457   8.207643  -0.033376   0.200835   0.000751  -0.042249
    15  H   -0.004494  -0.033376   0.454333   0.003453   0.000283   0.041917
    16  H    0.002836   0.200835   0.003453   0.564943  -0.000271   0.004659
    17  C   -0.006811   0.000751   0.000283  -0.000271   7.287723  -1.755893
    18  C    0.000860  -0.042249   0.041917   0.004659  -1.755893  10.989949
    19  H    0.000036   0.000015  -0.000037   0.000000   0.375500  -0.061301
    20  H   -0.000119   0.000009  -0.000028  -0.000002   0.364007   0.048531
    21  C    0.006294   0.010572  -0.022111   0.000746  -0.051214  -3.201375
    22  O   -0.017629   0.005386  -0.013471  -0.001408  -0.068870   0.085106
    23  O    0.000459  -0.000187   0.003683  -0.000966   0.008890   0.015377
    24  O    0.000028  -0.000016  -0.000008  -0.000020  -0.000345  -0.119828
    25  O    0.000341   0.000022   0.000008  -0.000008   0.008887  -0.012844
    26  H   -0.000322   0.000024  -0.000022  -0.000004  -0.007055  -0.017589
    27  H   -0.000120  -0.000008   0.000000   0.000000   0.014683  -0.017445
    28  O    0.000000  -0.000028  -0.000147   0.000008   0.002261  -0.011647
    29  H    0.000005   0.000050  -0.000215  -0.000003  -0.000610  -0.017226
    30  H    0.000000  -0.000002   0.000012   0.000000   0.000015   0.005911
    31  O   -0.000001   0.000039  -0.000298   0.000002   0.009030  -0.051840
    32  H    0.000000   0.000012   0.000057  -0.000001  -0.005522   0.027076
    33  H    0.000001  -0.000035  -0.000254   0.000009  -0.001800  -0.022299
    34  O   -0.001730  -0.029438  -0.000312   0.002963   0.001263  -0.003761
    35  H   -0.001681   0.036566   0.000396  -0.006421   0.000386  -0.000262
    36  H    0.000026   0.005116   0.000149   0.000188  -0.000437   0.001611
    37  O    0.000001   0.000000   0.000000   0.000000  -0.003793   0.002181
    38  H    0.000000   0.000000   0.000000   0.000000   0.001638  -0.001173
    39  H    0.000000   0.000000   0.000000   0.000000  -0.002057   0.000458
              19         20         21         22         23         24
     1  C   -0.019437  -0.006248  -0.006348  -0.011659   0.005645  -0.010474
     2  C    0.030049  -0.000691   0.461784  -0.045543  -0.094977   0.047357
     3  C   -0.019256  -0.021596  -0.310563  -0.092311   0.038229  -0.004521
     4  C   -0.003847  -0.003474  -0.393462   0.019229   0.133898  -0.039644
     5  H   -0.000072   0.000003  -0.002733   0.000010   0.000249  -0.000306
     6  C    0.012597   0.010058   0.127168   0.020840  -0.004776   0.004973
     7  C    0.000472   0.002227  -0.073062   0.084272  -0.012100  -0.006888
     8  H    0.000034  -0.000255   0.000776  -0.001322  -0.000022  -0.000001
     9  C    0.000581   0.003184   0.065542   0.023204  -0.031501  -0.000607
    10  H   -0.000001   0.000015   0.008951  -0.000281  -0.001903   0.000711
    11  O   -0.000195  -0.000623   0.004403  -0.000772  -0.000015   0.000152
    12  O    0.000264  -0.001505   0.001684   0.000793   0.000004   0.000052
    13  H    0.000036  -0.000119   0.006294  -0.017629   0.000459   0.000028
    14  O    0.000015   0.000009   0.010572   0.005386  -0.000187  -0.000016
    15  H   -0.000037  -0.000028  -0.022111  -0.013471   0.003683  -0.000008
    16  H    0.000000  -0.000002   0.000746  -0.001408  -0.000966  -0.000020
    17  C    0.375500   0.364007  -0.051214  -0.068870   0.008890  -0.000345
    18  C   -0.061301   0.048531  -3.201375   0.085106   0.015377  -0.119828
    19  H    0.527816  -0.033956   0.065564   0.012327  -0.001679  -0.009026
    20  H   -0.033956   0.520967  -0.018535  -0.005566  -0.000416   0.000145
    21  C    0.065564  -0.018535   8.285042   0.054706   0.241030   0.506589
    22  O    0.012327  -0.005566   0.054706   8.396027  -0.002161   0.009555
    23  O   -0.001679  -0.000416   0.241030  -0.002161   8.452878  -0.071493
    24  O   -0.009026   0.000145   0.506589   0.009555  -0.071493   8.235466
    25  O    0.000600   0.003842   0.008562  -0.004455  -0.000113   0.000113
    26  H    0.000228  -0.000983   0.006678   0.042147   0.000181  -0.000091
    27  H    0.000008  -0.000168  -0.003790   0.001026   0.000016  -0.000001
    28  O   -0.000003  -0.000003   0.025907   0.000506  -0.025571  -0.001412
    29  H    0.000023   0.000002   0.032744  -0.001689   0.042971  -0.002235
    30  H   -0.000001   0.000000  -0.008398  -0.000022  -0.000115   0.001781
    31  O    0.000189  -0.000020   0.061364   0.000975  -0.052565  -0.055722
    32  H   -0.000080   0.000018  -0.016198  -0.000371   0.007261   0.075654
    33  H   -0.000035   0.000004   0.018462   0.000138   0.034579  -0.005702
    34  O   -0.000001  -0.000012  -0.000835   0.000019   0.000086   0.000001
    35  H    0.000000   0.000000   0.000140  -0.000155  -0.000069   0.000001
    36  H    0.000000   0.000010   0.000315   0.000315  -0.000011   0.000000
    37  O    0.000046   0.000073  -0.000046   0.000000   0.000000  -0.000001
    38  H    0.000011  -0.000022   0.000067   0.000000   0.000000   0.000000
    39  H    0.000003  -0.000006   0.000070  -0.000005   0.000000   0.000000
              25         26         27         28         29         30
     1  C    0.026551  -0.007775  -0.012222   0.000107   0.000813  -0.000143
     2  C   -0.008727   0.000435  -0.001215  -0.002886   0.002619  -0.000142
     3  C    0.015260  -0.018760  -0.003200   0.001597  -0.002078   0.000016
     4  C    0.003721  -0.004479  -0.005523   0.001896  -0.004400   0.000187
     5  H   -0.000024  -0.000001   0.000003   0.000001   0.000000   0.000000
     6  C    0.005575  -0.002748  -0.001204  -0.000081   0.000148  -0.000014
     7  C   -0.043378   0.034938   0.021017   0.000942  -0.000918  -0.000086
     8  H   -0.000557  -0.000586   0.001223   0.000000   0.000000   0.000000
     9  C    0.006566   0.006524  -0.000317  -0.001134   0.001196   0.000594
    10  H   -0.000001   0.000002   0.000000  -0.000008   0.000025  -0.000003
    11  O   -0.001237  -0.000051   0.001228   0.000000   0.000000   0.000000
    12  O   -0.033773   0.001423   0.064622   0.000000   0.000000   0.000000
    13  H    0.000341  -0.000322  -0.000120   0.000000   0.000005   0.000000
    14  O    0.000022   0.000024  -0.000008  -0.000028   0.000050  -0.000002
    15  H    0.000008  -0.000022   0.000000  -0.000147  -0.000215   0.000012
    16  H   -0.000008  -0.000004   0.000000   0.000008  -0.000003   0.000000
    17  C    0.008887  -0.007055   0.014683   0.002261  -0.000610   0.000015
    18  C   -0.012844  -0.017589  -0.017445  -0.011647  -0.017226   0.005911
    19  H    0.000600   0.000228   0.000008  -0.000003   0.000023  -0.000001
    20  H    0.003842  -0.000983  -0.000168  -0.000003   0.000002   0.000000
    21  C    0.008562   0.006678  -0.003790   0.025907   0.032744  -0.008398
    22  O   -0.004455   0.042147   0.001026   0.000506  -0.001689  -0.000022
    23  O   -0.000113   0.000181   0.000016  -0.025571   0.042971  -0.000115
    24  O    0.000113  -0.000091  -0.000001  -0.001412  -0.002235   0.001781
    25  O    8.044382   0.273781   0.287486   0.000001  -0.000002   0.000000
    26  H    0.273781   0.417709  -0.002379  -0.000002   0.000002   0.000000
    27  H    0.287486  -0.002379   0.333086   0.000000   0.000000   0.000000
    28  O    0.000001  -0.000002   0.000000   8.111502   0.261567   0.282383
    29  H   -0.000002   0.000002   0.000000   0.261567   0.374309  -0.005149
    30  H    0.000000   0.000000   0.000000   0.282383  -0.005149   0.408356
    31  O    0.000001  -0.000001   0.000000  -0.012794  -0.004859   0.043734
    32  H   -0.000001   0.000001   0.000000  -0.003287   0.001221  -0.006325
    33  H    0.000000   0.000000   0.000000   0.001464  -0.001956  -0.007689
    34  O   -0.000102   0.000033   0.000023   0.000000   0.000000   0.000000
    35  H   -0.000016  -0.000001   0.000003   0.000000   0.000000   0.000000
    36  H    0.000043  -0.000005   0.000028   0.000000   0.000000   0.000000
    37  O    0.000146  -0.000007  -0.000370   0.000000   0.000000   0.000000
    38  H   -0.000110   0.000004   0.000240   0.000000   0.000000   0.000000
    39  H    0.000287  -0.000009  -0.000490   0.000000   0.000000   0.000000
              31         32         33         34         35         36
     1  C   -0.001963   0.003287   0.000321  -0.005851   0.016793  -0.007108
     2  C    0.001848  -0.000648  -0.005435  -0.062788   0.007683  -0.019491
     3  C    0.000700  -0.000169   0.000390   0.081285  -0.035221   0.058744
     4  C    0.003637  -0.004188   0.000835   0.035704  -0.018182   0.015057
     5  H   -0.000001   0.000016   0.000012   0.000122  -0.000050  -0.000010
     6  C   -0.000254   0.000411  -0.000071   0.001487   0.004200   0.008149
     7  C    0.000560  -0.000243   0.000236  -0.008465  -0.004756   0.000920
     8  H    0.000000   0.000000   0.000000  -0.001078   0.000243  -0.001693
     9  C   -0.006002  -0.000623   0.003497  -0.017165   0.033190  -0.037417
    10  H    0.000054   0.000056  -0.000115  -0.000039   0.000178  -0.000003
    11  O    0.000001  -0.000002   0.000000   0.000074   0.000016   0.000062
    12  O    0.000000   0.000000   0.000000   0.000219  -0.000026  -0.000358
    13  H   -0.000001   0.000000   0.000001  -0.001730  -0.001681   0.000026
    14  O    0.000039   0.000012  -0.000035  -0.029438   0.036566   0.005116
    15  H   -0.000298   0.000057  -0.000254  -0.000312   0.000396   0.000149
    16  H    0.000002  -0.000001   0.000009   0.002963  -0.006421   0.000188
    17  C    0.009030  -0.005522  -0.001800   0.001263   0.000386  -0.000437
    18  C   -0.051840   0.027076  -0.022299  -0.003761  -0.000262   0.001611
    19  H    0.000189  -0.000080  -0.000035  -0.000001   0.000000   0.000000
    20  H   -0.000020   0.000018   0.000004  -0.000012   0.000000   0.000010
    21  C    0.061364  -0.016198   0.018462  -0.000835   0.000140   0.000315
    22  O    0.000975  -0.000371   0.000138   0.000019  -0.000155   0.000315
    23  O   -0.052565   0.007261   0.034579   0.000086  -0.000069  -0.000011
    24  O   -0.055722   0.075654  -0.005702   0.000001   0.000001   0.000000
    25  O    0.000001  -0.000001   0.000000  -0.000102  -0.000016   0.000043
    26  H   -0.000001   0.000001   0.000000   0.000033  -0.000001  -0.000005
    27  H    0.000000   0.000000   0.000000   0.000023   0.000003   0.000028
    28  O   -0.012794  -0.003287   0.001464   0.000000   0.000000   0.000000
    29  H   -0.004859   0.001221  -0.001956   0.000000   0.000000   0.000000
    30  H    0.043734  -0.006325  -0.007689   0.000000   0.000000   0.000000
    31  O    8.072899   0.288047   0.272617   0.000000   0.000000   0.000000
    32  H    0.288047   0.352640  -0.016039   0.000000   0.000000   0.000000
    33  H    0.272617  -0.016039   0.463555   0.000000   0.000000   0.000000
    34  O    0.000000   0.000000   0.000000   8.042102   0.274210   0.276573
    35  H    0.000000   0.000000   0.000000   0.274210   0.373999  -0.003631
    36  H    0.000000   0.000000   0.000000   0.276573  -0.003631   0.417653
    37  O    0.000000   0.000000   0.000000   0.000001   0.000000   0.000002
    38  H    0.000000   0.000000   0.000000  -0.000001   0.000000   0.000000
    39  H    0.000000   0.000000   0.000000   0.000000   0.000000   0.000000
              37         38         39
     1  C   -0.011548  -0.019053  -0.012996
     2  C    0.000144  -0.003820   0.005755
     3  C   -0.005694   0.005330  -0.011493
     4  C    0.000192  -0.003019   0.001355
     5  H    0.000154  -0.000062  -0.000014
     6  C    0.055463   0.009754   0.018968
     7  C   -0.000358   0.001573  -0.002122
     8  H    0.000210  -0.000045   0.000012
     9  C   -0.000004  -0.000220  -0.000044
    10  H    0.000001   0.000000   0.000000
    11  O   -0.060623   0.059748   0.005344
    12  O   -0.047932   0.009272   0.040680
    13  H    0.000001   0.000000   0.000000
    14  O    0.000000   0.000000   0.000000
    15  H    0.000000   0.000000   0.000000
    16  H    0.000000   0.000000   0.000000
    17  C   -0.003793   0.001638  -0.002057
    18  C    0.002181  -0.001173   0.000458
    19  H    0.000046   0.000011   0.000003
    20  H    0.000073  -0.000022  -0.000006
    21  C   -0.000046   0.000067   0.000070
    22  O    0.000000   0.000000  -0.000005
    23  O    0.000000   0.000000   0.000000
    24  O   -0.000001   0.000000   0.000000
    25  O    0.000146  -0.000110   0.000287
    26  H   -0.000007   0.000004  -0.000009
    27  H   -0.000370   0.000240  -0.000490
    28  O    0.000000   0.000000   0.000000
    29  H    0.000000   0.000000   0.000000
    30  H    0.000000   0.000000   0.000000
    31  O    0.000000   0.000000   0.000000
    32  H    0.000000   0.000000   0.000000
    33  H    0.000000   0.000000   0.000000
    34  O    0.000001  -0.000001   0.000000
    35  H    0.000000   0.000000   0.000000
    36  H    0.000002   0.000000   0.000000
    37  O    8.073408   0.279514   0.286196
    38  H    0.279514   0.405291  -0.016497
    39  H    0.286196  -0.016497   0.402100
 Mulliken charges:
               1
     1  C   -0.020854
     2  C    0.051359
     3  C   -0.149656
     4  C   -0.208765
     5  H    0.109489
     6  C    0.468089
     7  C   -0.120792
     8  H    0.142146
     9  C   -0.158971
    10  H    0.072288
    11  O   -0.600506
    12  O   -0.667395
    13  H    0.093736
    14  O   -0.451924
    15  H    0.192519
    16  H    0.235148
    17  C   -0.264172
    18  C    0.623983
    19  H    0.122564
    20  H    0.141133
    21  C    0.113510
    22  O   -0.488890
    23  O   -0.684793
    24  O   -0.554234
    25  O   -0.580824
    26  H    0.278761
    27  H    0.323760
    28  O   -0.631141
    29  H    0.323646
    30  H    0.285099
    31  O   -0.569376
    32  H    0.297942
    33  H    0.265309
    34  O   -0.584587
    35  H    0.322466
    36  H    0.285205
    37  O   -0.567355
    38  H    0.271578
    39  H    0.284505
 Sum of Mulliken charges =  -2.00000
 Mulliken charges with hydrogens summed into heavy atoms:
               1
     1  C   -0.020854
     2  C    0.160847
     3  C   -0.007510
     4  C   -0.136477
     6  C    0.468089
     7  C   -0.027056
     9  C    0.033549
    11  O   -0.600506
    12  O   -0.667395
    14  O   -0.216776
    17  C   -0.000475
    18  C    0.623983
    21  C    0.113510
    22  O   -0.488890
    23  O   -0.684793
    24  O   -0.554234
    25  O    0.021696
    28  O   -0.022396
    31  O   -0.006125
    34  O    0.023084
    37  O   -0.011272
 Electronic spatial extent (au):  <R**2>=           8048.1759
 Charge=             -2.0000 electrons
 Dipole moment (field-independent basis, Debye):
    X=              1.3689    Y=              7.0595    Z=             -0.1496  Tot=              7.1925
 Quadrupole moment (field-independent basis, Debye-Ang):
   XX=           -304.8907   YY=           -181.1524   ZZ=           -166.8161
   XY=              1.3616   XZ=             -4.8798   YZ=             -0.2932
 Traceless Quadrupole moment (field-independent basis, Debye-Ang):
   XX=            -87.2709   YY=             36.4673   ZZ=             50.8036
   XY=              1.3616   XZ=             -4.8798   YZ=             -0.2932
 Octapole moment (field-independent basis, Debye-Ang**2):
  XXX=            -69.7935  YYY=            -70.5865  ZZZ=            -41.1871  XYY=            113.7722
  XXY=            234.6569  XXZ=             42.2225  XZZ=             20.9853  YZZ=             31.1599
  YYZ=             34.8116  XYZ=              9.3348
 Hexadecapole moment (field-independent basis, Debye-Ang**3):
 XXXX=         -11117.4813 YYYY=          -3315.6945 ZZZZ=          -1624.0378 XXXY=           -408.5950
 XXXZ=           -473.3076 YYYX=            217.7562 YYYZ=             40.4421 ZZZX=            159.6679
 ZZZY=             46.1116 XXYY=          -2072.3050 XXZZ=          -1693.1825 YYZZ=           -715.6346
 XXYZ=           -180.4655 YYXZ=            -24.8350 ZZXY=              5.7000
 N-N= 1.873752110047D+03 E-N=-6.654563586693D+03  KE= 1.215462948749D+03
 1\1\GINC-C48-1\SP\RB3LYP\6-311+G(2d,2p)\C10H18O11(2-)\GVI022\06-Feb-20
 19\0\\# rb3lyp/6-311+g(2d,2p) geom=connectivity empiricaldispersion=gd
 3\\Title Card Required\\-2,1\C,0,-1.520228,0.126858,-0.463007\C,0,-0.6
 40656,0.344212,-1.611685\C,0,-1.403791,0.986427,0.627699\C,0,0.377422,
 1.219842,-1.568663\H,0,-0.873935,-0.230128,-2.50164\C,0,-2.772787,-0.7
 44189,-0.603246\C,0,-0.208342,1.663855,0.830122\H,0,-2.131771,0.926375
 ,1.42593\C,0,0.753154,1.93357,-0.308025\H,0,1.019939,1.391314,-2.42732
 7\O,0,-3.085375,-1.081702,-1.772223\O,0,-3.382225,-1.023472,0.475721\H
 ,0,-0.092096,2.305696,1.698032\O,0,0.806257,3.374662,-0.595444\H,0,1.7
 54914,1.597413,-0.002994\H,0,1.338784,3.765761,0.110625\C,0,-0.118664,
 -1.775643,0.612545\C,0,0.909528,-0.900635,0.922181\H,0,0.055638,-2.542
 318,-0.131849\H,0,-1.015616,-1.830824,1.20985\C,0,2.251202,-1.011558,0
 .144676\O,0,0.752408,0.062763,1.772695\O,0,3.033365,-0.012439,0.192116
 \O,0,2.455722,-2.103946,-0.44824\O,0,-2.223109,-0.803006,3.103632\H,0,
 -1.320751,-0.546298,2.858507\H,0,-2.666826,-0.910019,2.234036\O,0,5.72
 8288,-0.752478,0.9261\H,0,4.815148,-0.410675,0.967722\H,0,5.67768,-1.1
 91657,0.057428\O,0,4.759356,-1.373514,-1.719368\H,0,3.991859,-1.880516
 ,-1.349664\H,0,4.465578,-0.501696,-1.403386\O,0,-1.835198,4.297637,-0.
 029063\H,0,-0.942558,4.08744,-0.362533\H,0,-2.211265,3.412153,0.069506
 \O,0,-5.483434,-2.38119,-0.937142\H,0,-4.801727,-2.067657,-1.562673\H,
 0,-5.032462,-2.057321,-0.135405\\Version=EM64L-G09RevD.01\State=1-A\HF
 =-1219.928125\RMSD=6.756e-09\Dipole=0.5385725,2.7774036,-0.058841\Quad
 rupole=-64.8838088,27.1125525,37.7712562,1.0122994,-3.6280458,-0.21801
 57\PG=C01 [X(C10H18O11)]\\@


 Any fool can criticize, condemn, and complain -- and most do.
 -- Dale Carnegie
 Job cpu time:       0 days  0 hours  0 minutes 30.8 seconds.
 File lengths (MBytes):  RWF=    275 Int=      0 D2E=      0 Chk=     19 Scr=      1
 Normal termination of Gaussian 09 at Wed Feb  6 08:08:28 2019.
