 Entering Gaussian System, Link 0=g09
 Initial command:
 /global/apps/Gaussian/09.d01/l1.exe "/global/work/gvi022/1443066/Gau-49250.inp" -scrdir="/global/work/gvi022/1443066/"
 Entering Link 1 = /global/apps/Gaussian/09.d01/l1.exe PID=     49251.
  
 Copyright (c) 1988,1990,1992,1993,1995,1998,2003,2009,2013,
            Gaussian, Inc.  All Rights Reserved.
  
 This is part of the Gaussian(R) 09 program.  It is based on
 the Gaussian(R) 03 system (copyright 2003, Gaussian, Inc.),
 the Gaussian(R) 98 system (copyright 1998, Gaussian, Inc.),
 the Gaussian(R) 94 system (copyright 1995, Gaussian, Inc.),
 the Gaussian 92(TM) system (copyright 1992, Gaussian, Inc.),
 the Gaussian 90(TM) system (copyright 1990, Gaussian, Inc.),
 the Gaussian 88(TM) system (copyright 1988, Gaussian, Inc.),
 the Gaussian 86(TM) system (copyright 1986, Carnegie Mellon
 University), and the Gaussian 82(TM) system (copyright 1983,
 Carnegie Mellon University). Gaussian is a federally registered
 trademark of Gaussian, Inc.
  
 This software contains proprietary and confidential information,
 including trade secrets, belonging to Gaussian, Inc.
  
 This software is provided under written license and may be
 used, copied, transmitted, or stored only in accord with that
 written license.
  
 The following legend is applicable only to US Government
 contracts under FAR:
  
                    RESTRICTED RIGHTS LEGEND
  
 Use, reproduction and disclosure by the US Government is
 subject to restrictions as set forth in subparagraphs (a)
 and (c) of the Commercial Computer Software - Restricted
 Rights clause in FAR 52.227-19.
  
 Gaussian, Inc.
 340 Quinnipiac St., Bldg. 40, Wallingford CT 06492
  
  
 ---------------------------------------------------------------
 Warning -- This program may not be used in any manner that
 competes with the business of Gaussian, Inc. or will provide
 assistance to any competitor of Gaussian, Inc.  The licensee
 of this program is prohibited from giving any competitor of
 Gaussian, Inc. access to this program.  By using this program,
 the user acknowledges that Gaussian, Inc. is engaged in the
 business of creating and licensing software in the field of
 computational chemistry and represents and warrants to the
 licensee that it is not a competitor of Gaussian, Inc. and that
 it will not use this program in any manner prohibited above.
 ---------------------------------------------------------------
  

 Cite this work as:
 Gaussian 09, Revision D.01,
 M. J. Frisch, G. W. Trucks, H. B. Schlegel, G. E. Scuseria, 
 M. A. Robb, J. R. Cheeseman, G. Scalmani, V. Barone, B. Mennucci, 
 G. A. Petersson, H. Nakatsuji, M. Caricato, X. Li, H. P. Hratchian, 
 A. F. Izmaylov, J. Bloino, G. Zheng, J. L. Sonnenberg, M. Hada, 
 M. Ehara, K. Toyota, R. Fukuda, J. Hasegawa, M. Ishida, T. Nakajima, 
 Y. Honda, O. Kitao, H. Nakai, T. Vreven, J. A. Montgomery, Jr., 
 J. E. Peralta, F. Ogliaro, M. Bearpark, J. J. Heyd, E. Brothers, 
 K. N. Kudin, V. N. Staroverov, T. Keith, R. Kobayashi, J. Normand, 
 K. Raghavachari, A. Rendell, J. C. Burant, S. S. Iyengar, J. Tomasi, 
 M. Cossi, N. Rega, J. M. Millam, M. Klene, J. E. Knox, J. B. Cross, 
 V. Bakken, C. Adamo, J. Jaramillo, R. Gomperts, R. E. Stratmann, 
 O. Yazyev, A. J. Austin, R. Cammi, C. Pomelli, J. W. Ochterski, 
 R. L. Martin, K. Morokuma, V. G. Zakrzewski, G. A. Voth, 
 P. Salvador, J. J. Dannenberg, S. Dapprich, A. D. Daniels, 
 O. Farkas, J. B. Foresman, J. V. Ortiz, J. Cioslowski, 
 and D. J. Fox, Gaussian, Inc., Wallingford CT, 2013.
 
 ******************************************
 Gaussian 09:  EM64L-G09RevD.01 24-Apr-2013
                 6-Feb-2019 
 ******************************************
 %LindaWorkers=cib52-2,cib52-4,cib52-5,cib52-8
 %NProcShared=20
 Will use up to   20 processors via shared memory.
 %chk=chorA_TS.chk
 SetLPE:  input flags=""
 SetLPE:    new flags=" -nodelist 'cib52-2.ibnet cib52-4.ibnet cib52-5.ibnet cib52-8.ibnet'"
 Will use up to    4 processors via Linda.
 ----------------------------------------------------------------------
 # opt=(calcfc,ts,noeigentest) freq=noraman rb3lyp/6-31g(d,p) geom=conn
 ectivity empiricaldispersion=gd3
 ----------------------------------------------------------------------
 1/5=1,10=4,11=1,14=-1,18=20,26=3,38=1,57=2/1,3;
 2/9=110,12=2,17=6,18=5,40=1/2;
 3/5=1,6=6,7=101,11=2,16=1,25=1,30=1,71=2,74=-5,116=1,124=31,140=1/1,2,3;
 4//1;
 5/5=2,38=5/2;
 8/6=4,10=90,11=11/1;
 11/6=1,8=1,9=11,15=111,16=1/1,2,10;
 10/6=1,13=1/2;
 6/7=2,8=2,9=2,10=2,28=1/1;
 7/10=1,18=20,25=1/1,2,3,16;
 1/5=1,10=4,11=1,14=-1,18=20,26=3/3(2);
 2/9=110/2;
 99//99;
 2/9=110/2;
 3/5=1,6=6,7=101,11=2,16=1,25=1,30=1,71=1,74=-5,116=1,124=31/1,2,3;
 4/5=5,16=3,69=1/1;
 5/5=2,38=5/2;
 7//1,2,3,16;
 1/5=1,11=1,14=-1,18=20,26=3/3(-5);
 2/9=110/2;
 6/7=2,8=2,9=2,10=2,19=2,28=1/1;
 99/9=1/99;
 -------------------
 Title Card Required
 -------------------
 Symbolic Z-matrix:
 Charge = -2 Multiplicity = 1
 C                    -1.37745   0.0133   -0.407 
 C                    -0.47307   0.20101  -1.55931 
 C                    -1.38343   1.00671   0.56889 
 C                     0.49253   1.12438  -1.54929 
 H                    -0.64987  -0.45109  -2.4083 
 C                    -2.6329   -0.86027  -0.57342 
 C                    -0.18554   1.68355   0.79941 
 H                    -2.15994   0.99812   1.32503 
 C                     0.77868   1.96548  -0.34217 
 H                     1.15      1.26988  -2.40156 
 O                    -2.8479   -1.30693  -1.71747 
 O                    -3.3234   -1.02729   0.47167 
 H                    -0.14355   2.4147    1.60541 
 O                     0.68753   3.35603  -0.74021 
 H                     1.79671   1.75341   0.00482 
 H                     1.10195   3.86926  -0.03677 
 C                    -0.19338  -1.55283   0.70524 
 C                     0.88321  -0.71586   0.95697 
 H                    -0.044    -2.37291   0.01138 
 H                    -1.03177  -1.61256   1.38472 
 C                     2.19467  -0.90745   0.15766 
 O                     0.75281   0.31616   1.72463 
 O                     3.04342   0.02643   0.22267 
 O                     2.30369  -1.99255  -0.45455 
 O                    -2.3427   -0.58613   3.12647 
 H                    -1.4492   -0.29322   2.90324 
 H                    -2.74473  -0.76477   2.25138 
 O                     5.62135  -0.95336   1.03905 
 H                     4.74513  -0.53411   1.07572 
 H                     5.57154  -1.33778   0.14916 
 O                     4.68551  -1.33777  -1.64513 
 H                     3.9011   -1.85633  -1.36021 
 H                     4.39545  -0.49388  -1.25882 
 O                    -2.02433   4.1049   -0.24912 
 H                    -1.14372   3.91088  -0.60973 
 H                    -2.36263   3.21664  -0.0823 
 O                    -5.31162  -2.48966  -0.95048 
 H                    -4.58864  -2.25549  -1.55736 
 H                    -4.91856  -2.08745  -0.15798 
 
 Add virtual bond connecting atoms H32        and O24        Dist= 3.48D+00.
 Add virtual bond connecting atoms H27        and O12        Dist= 3.57D+00.
 Add virtual bond connecting atoms H20        and H26        Dist= 3.88D+00.
 Add virtual bond connecting atoms O22        and C7         Dist= 3.59D+00.
 Add virtual bond connecting atoms H35        and O14        Dist= 3.62D+00.
 Add virtual bond connecting atoms H29        and O23        Dist= 3.75D+00.
 Add virtual bond connecting atoms H30        and O31        Dist= 3.78D+00.
 Add virtual bond connecting atoms H30        and H33        Dist= 3.82D+00.
 Add virtual bond connecting atoms H38        and O11        Dist= 3.76D+00.
 Add virtual bond connecting atoms H39        and O12        Dist= 3.81D+00.

 GradGradGradGradGradGradGradGradGradGradGradGradGradGradGradGradGradGrad
 Berny optimization.
 Initialization pass.
                           ----------------------------
                           !    Initial Parameters    !
                           ! (Angstroms and Degrees)  !
 --------------------------                            --------------------------
 ! Name  Definition              Value          Derivative Info.                !
 --------------------------------------------------------------------------------
 ! R1    R(1,2)                  1.4768         calculate D2E/DX2 analytically  !
 ! R2    R(1,3)                  1.3926         calculate D2E/DX2 analytically  !
 ! R3    R(1,6)                  1.5385         calculate D2E/DX2 analytically  !
 ! R4    R(2,4)                  1.3361         calculate D2E/DX2 analytically  !
 ! R5    R(2,5)                  1.085          calculate D2E/DX2 analytically  !
 ! R6    R(3,7)                  1.3951         calculate D2E/DX2 analytically  !
 ! R7    R(3,8)                  1.0839         calculate D2E/DX2 analytically  !
 ! R8    R(4,9)                  1.4988         calculate D2E/DX2 analytically  !
 ! R9    R(4,10)                 1.0862         calculate D2E/DX2 analytically  !
 ! R10   R(6,11)                 1.2468         calculate D2E/DX2 analytically  !
 ! R11   R(6,12)                 1.2637         calculate D2E/DX2 analytically  !
 ! R12   R(7,9)                  1.5207         calculate D2E/DX2 analytically  !
 ! R13   R(7,13)                 1.089          calculate D2E/DX2 analytically  !
 ! R14   R(7,22)                 1.899          calculate D2E/DX2 analytically  !
 ! R15   R(9,14)                 1.4493         calculate D2E/DX2 analytically  !
 ! R16   R(9,15)                 1.0962         calculate D2E/DX2 analytically  !
 ! R17   R(11,38)                1.9889         calculate D2E/DX2 analytically  !
 ! R18   R(12,27)                1.8898         calculate D2E/DX2 analytically  !
 ! R19   R(12,39)                2.0162         calculate D2E/DX2 analytically  !
 ! R20   R(14,16)                0.9644         calculate D2E/DX2 analytically  !
 ! R21   R(14,35)                1.9179         calculate D2E/DX2 analytically  !
 ! R22   R(17,18)                1.3867         calculate D2E/DX2 analytically  !
 ! R23   R(17,19)                1.0846         calculate D2E/DX2 analytically  !
 ! R24   R(17,20)                1.0808         calculate D2E/DX2 analytically  !
 ! R25   R(18,21)                1.5477         calculate D2E/DX2 analytically  !
 ! R26   R(18,22)                1.2928         calculate D2E/DX2 analytically  !
 ! R27   R(20,26)                2.0545         calculate D2E/DX2 analytically  !
 ! R28   R(21,23)                1.2636         calculate D2E/DX2 analytically  !
 ! R29   R(21,24)                1.2507         calculate D2E/DX2 analytically  !
 ! R30   R(23,29)                1.9844         calculate D2E/DX2 analytically  !
 ! R31   R(24,32)                1.8413         calculate D2E/DX2 analytically  !
 ! R32   R(25,26)                0.9664         calculate D2E/DX2 analytically  !
 ! R33   R(25,27)                0.9794         calculate D2E/DX2 analytically  !
 ! R34   R(28,29)                0.972          calculate D2E/DX2 analytically  !
 ! R35   R(28,30)                0.9707         calculate D2E/DX2 analytically  !
 ! R36   R(30,31)                2.0011         calculate D2E/DX2 analytically  !
 ! R37   R(30,33)                2.0193         calculate D2E/DX2 analytically  !
 ! R38   R(31,32)                0.9825         calculate D2E/DX2 analytically  !
 ! R39   R(31,33)                0.9724         calculate D2E/DX2 analytically  !
 ! R40   R(34,35)                0.9712         calculate D2E/DX2 analytically  !
 ! R41   R(34,36)                0.965          calculate D2E/DX2 analytically  !
 ! R42   R(37,38)                0.9725         calculate D2E/DX2 analytically  !
 ! R43   R(37,39)                0.9718         calculate D2E/DX2 analytically  !
 ! A1    A(2,1,3)              117.3071         calculate D2E/DX2 analytically  !
 ! A2    A(2,1,6)              119.1754         calculate D2E/DX2 analytically  !
 ! A3    A(3,1,6)              118.5128         calculate D2E/DX2 analytically  !
 ! A4    A(1,2,4)              121.6392         calculate D2E/DX2 analytically  !
 ! A5    A(1,2,5)              115.7447         calculate D2E/DX2 analytically  !
 ! A6    A(4,2,5)              122.6147         calculate D2E/DX2 analytically  !
 ! A7    A(1,3,7)              117.2718         calculate D2E/DX2 analytically  !
 ! A8    A(1,3,8)              119.0978         calculate D2E/DX2 analytically  !
 ! A9    A(7,3,8)              120.2474         calculate D2E/DX2 analytically  !
 ! A10   A(2,4,9)              122.1306         calculate D2E/DX2 analytically  !
 ! A11   A(2,4,10)             121.6116         calculate D2E/DX2 analytically  !
 ! A12   A(9,4,10)             116.1801         calculate D2E/DX2 analytically  !
 ! A13   A(1,6,11)             116.3197         calculate D2E/DX2 analytically  !
 ! A14   A(1,6,12)             115.561          calculate D2E/DX2 analytically  !
 ! A15   A(11,6,12)            128.1176         calculate D2E/DX2 analytically  !
 ! A16   A(3,7,9)              120.6878         calculate D2E/DX2 analytically  !
 ! A17   A(3,7,13)             118.7595         calculate D2E/DX2 analytically  !
 ! A18   A(3,7,22)              98.9427         calculate D2E/DX2 analytically  !
 ! A19   A(9,7,13)             113.9974         calculate D2E/DX2 analytically  !
 ! A20   A(9,7,22)             100.7158         calculate D2E/DX2 analytically  !
 ! A21   A(13,7,22)             95.9573         calculate D2E/DX2 analytically  !
 ! A22   A(4,9,7)              112.3036         calculate D2E/DX2 analytically  !
 ! A23   A(4,9,14)             107.7719         calculate D2E/DX2 analytically  !
 ! A24   A(4,9,15)             108.8846         calculate D2E/DX2 analytically  !
 ! A25   A(7,9,14)             110.132          calculate D2E/DX2 analytically  !
 ! A26   A(7,9,15)             108.3821         calculate D2E/DX2 analytically  !
 ! A27   A(14,9,15)            109.3267         calculate D2E/DX2 analytically  !
 ! A28   A(6,11,38)            104.354          calculate D2E/DX2 analytically  !
 ! A29   A(6,12,27)            126.3832         calculate D2E/DX2 analytically  !
 ! A30   A(6,12,39)            104.0953         calculate D2E/DX2 analytically  !
 ! A31   A(27,12,39)           127.5486         calculate D2E/DX2 analytically  !
 ! A32   A(9,14,16)            106.4556         calculate D2E/DX2 analytically  !
 ! A33   A(9,14,35)            108.5996         calculate D2E/DX2 analytically  !
 ! A34   A(16,14,35)           101.9306         calculate D2E/DX2 analytically  !
 ! A35   A(18,17,19)           117.7479         calculate D2E/DX2 analytically  !
 ! A36   A(18,17,20)           121.4311         calculate D2E/DX2 analytically  !
 ! A37   A(19,17,20)           117.8556         calculate D2E/DX2 analytically  !
 ! A38   A(17,18,21)           119.3004         calculate D2E/DX2 analytically  !
 ! A39   A(17,18,22)           120.7499         calculate D2E/DX2 analytically  !
 ! A40   A(21,18,22)           119.4019         calculate D2E/DX2 analytically  !
 ! A41   A(17,20,26)           125.9295         calculate D2E/DX2 analytically  !
 ! A42   A(18,21,23)           116.8135         calculate D2E/DX2 analytically  !
 ! A43   A(18,21,24)           115.7259         calculate D2E/DX2 analytically  !
 ! A44   A(23,21,24)           127.4342         calculate D2E/DX2 analytically  !
 ! A45   A(7,22,18)            109.5929         calculate D2E/DX2 analytically  !
 ! A46   A(21,23,29)           112.9149         calculate D2E/DX2 analytically  !
 ! A47   A(21,24,32)           104.6084         calculate D2E/DX2 analytically  !
 ! A48   A(26,25,27)           103.2023         calculate D2E/DX2 analytically  !
 ! A49   A(20,26,25)            99.4359         calculate D2E/DX2 analytically  !
 ! A50   A(29,28,30)            99.1573         calculate D2E/DX2 analytically  !
 ! A51   A(23,29,28)           151.4781         calculate D2E/DX2 analytically  !
 ! A52   A(28,30,31)           147.6453         calculate D2E/DX2 analytically  !
 ! A53   A(28,30,33)           120.2387         calculate D2E/DX2 analytically  !
 ! A54   A(30,31,32)            95.3634         calculate D2E/DX2 analytically  !
 ! A55   A(32,31,33)            96.0093         calculate D2E/DX2 analytically  !
 ! A56   A(24,32,31)           150.9579         calculate D2E/DX2 analytically  !
 ! A57   A(35,34,36)           101.4292         calculate D2E/DX2 analytically  !
 ! A58   A(14,35,34)           161.5951         calculate D2E/DX2 analytically  !
 ! A59   A(38,37,39)            96.2316         calculate D2E/DX2 analytically  !
 ! A60   A(11,38,37)           144.6588         calculate D2E/DX2 analytically  !
 ! A61   A(12,39,37)           142.4056         calculate D2E/DX2 analytically  !
 ! A62   L(12,27,25,3,-1)      173.5974         calculate D2E/DX2 analytically  !
 ! A63   L(12,27,25,3,-2)      183.0557         calculate D2E/DX2 analytically  !
 ! D1    D(3,1,2,4)             13.4268         calculate D2E/DX2 analytically  !
 ! D2    D(3,1,2,5)           -166.1524         calculate D2E/DX2 analytically  !
 ! D3    D(6,1,2,4)            168.054          calculate D2E/DX2 analytically  !
 ! D4    D(6,1,2,5)            -11.5251         calculate D2E/DX2 analytically  !
 ! D5    D(2,1,3,7)            -32.1373         calculate D2E/DX2 analytically  !
 ! D6    D(2,1,3,8)            168.5544         calculate D2E/DX2 analytically  !
 ! D7    D(6,1,3,7)            173.0631         calculate D2E/DX2 analytically  !
 ! D8    D(6,1,3,8)             13.7548         calculate D2E/DX2 analytically  !
 ! D9    D(2,1,6,11)            -3.7235         calculate D2E/DX2 analytically  !
 ! D10   D(2,1,6,12)           176.7175         calculate D2E/DX2 analytically  !
 ! D11   D(3,1,6,11)           150.5988         calculate D2E/DX2 analytically  !
 ! D12   D(3,1,6,12)           -28.9602         calculate D2E/DX2 analytically  !
 ! D13   D(1,2,4,9)              4.055          calculate D2E/DX2 analytically  !
 ! D14   D(1,2,4,10)          -179.2753         calculate D2E/DX2 analytically  !
 ! D15   D(5,2,4,9)           -176.3951         calculate D2E/DX2 analytically  !
 ! D16   D(5,2,4,10)             0.2746         calculate D2E/DX2 analytically  !
 ! D17   D(1,3,7,9)             34.4377         calculate D2E/DX2 analytically  !
 ! D18   D(1,3,7,13)          -175.6585         calculate D2E/DX2 analytically  !
 ! D19   D(1,3,7,22)           -73.758          calculate D2E/DX2 analytically  !
 ! D20   D(8,3,7,9)           -166.5029         calculate D2E/DX2 analytically  !
 ! D21   D(8,3,7,13)           -16.5992         calculate D2E/DX2 analytically  !
 ! D22   D(8,3,7,22)            85.3013         calculate D2E/DX2 analytically  !
 ! D23   D(2,4,9,7)             -2.7221         calculate D2E/DX2 analytically  !
 ! D24   D(2,4,9,14)          -124.1979         calculate D2E/DX2 analytically  !
 ! D25   D(2,4,9,15)           117.3154         calculate D2E/DX2 analytically  !
 ! D26   D(10,4,9,7)          -179.5619         calculate D2E/DX2 analytically  !
 ! D27   D(10,4,9,14)           58.9623         calculate D2E/DX2 analytically  !
 ! D28   D(10,4,9,15)          -59.5245         calculate D2E/DX2 analytically  !
 ! D29   D(1,6,11,38)         -176.1557         calculate D2E/DX2 analytically  !
 ! D30   D(12,6,11,38)           3.3386         calculate D2E/DX2 analytically  !
 ! D31   D(1,6,12,27)          -19.0314         calculate D2E/DX2 analytically  !
 ! D32   D(1,6,12,39)          176.061          calculate D2E/DX2 analytically  !
 ! D33   D(11,6,12,27)         161.471          calculate D2E/DX2 analytically  !
 ! D34   D(11,6,12,39)          -3.4366         calculate D2E/DX2 analytically  !
 ! D35   D(3,7,9,4)            -16.472          calculate D2E/DX2 analytically  !
 ! D36   D(3,7,9,14)           103.644          calculate D2E/DX2 analytically  !
 ! D37   D(3,7,9,15)          -136.8007         calculate D2E/DX2 analytically  !
 ! D38   D(13,7,9,4)          -167.7088         calculate D2E/DX2 analytically  !
 ! D39   D(13,7,9,14)          -47.5928         calculate D2E/DX2 analytically  !
 ! D40   D(13,7,9,15)           71.9624         calculate D2E/DX2 analytically  !
 ! D41   D(22,7,9,4)            90.762          calculate D2E/DX2 analytically  !
 ! D42   D(22,7,9,14)         -149.1221         calculate D2E/DX2 analytically  !
 ! D43   D(22,7,9,15)          -29.5668         calculate D2E/DX2 analytically  !
 ! D44   D(3,7,22,18)           61.0177         calculate D2E/DX2 analytically  !
 ! D45   D(9,7,22,18)          -62.7334         calculate D2E/DX2 analytically  !
 ! D46   D(13,7,22,18)        -178.5765         calculate D2E/DX2 analytically  !
 ! D47   D(4,9,14,16)         -164.8943         calculate D2E/DX2 analytically  !
 ! D48   D(4,9,14,35)           86.0288         calculate D2E/DX2 analytically  !
 ! D49   D(7,9,14,16)           72.2882         calculate D2E/DX2 analytically  !
 ! D50   D(7,9,14,35)          -36.7887         calculate D2E/DX2 analytically  !
 ! D51   D(15,9,14,16)         -46.6915         calculate D2E/DX2 analytically  !
 ! D52   D(15,9,14,35)        -155.7683         calculate D2E/DX2 analytically  !
 ! D53   D(6,11,38,37)           0.5849         calculate D2E/DX2 analytically  !
 ! D54   D(6,12,25,26)           1.2081         calculate D2E/DX2 analytically  !
 ! D55   D(39,12,25,26)        162.3758         calculate D2E/DX2 analytically  !
 ! D56   D(6,12,39,37)          -0.0178         calculate D2E/DX2 analytically  !
 ! D57   D(27,12,39,37)       -164.6869         calculate D2E/DX2 analytically  !
 ! D58   D(9,14,35,34)          58.6031         calculate D2E/DX2 analytically  !
 ! D59   D(16,14,35,34)        -53.5194         calculate D2E/DX2 analytically  !
 ! D60   D(19,17,18,21)          5.2515         calculate D2E/DX2 analytically  !
 ! D61   D(19,17,18,22)        176.7129         calculate D2E/DX2 analytically  !
 ! D62   D(20,17,18,21)        165.3468         calculate D2E/DX2 analytically  !
 ! D63   D(20,17,18,22)        -23.1918         calculate D2E/DX2 analytically  !
 ! D64   D(18,17,20,26)         14.129          calculate D2E/DX2 analytically  !
 ! D65   D(19,17,20,26)        174.2036         calculate D2E/DX2 analytically  !
 ! D66   D(17,18,21,23)        166.2898         calculate D2E/DX2 analytically  !
 ! D67   D(17,18,21,24)        -15.4391         calculate D2E/DX2 analytically  !
 ! D68   D(22,18,21,23)         -5.288          calculate D2E/DX2 analytically  !
 ! D69   D(22,18,21,24)        172.9831         calculate D2E/DX2 analytically  !
 ! D70   D(17,18,22,7)         -75.0464         calculate D2E/DX2 analytically  !
 ! D71   D(21,18,22,7)          96.4065         calculate D2E/DX2 analytically  !
 ! D72   D(17,20,26,25)        168.5695         calculate D2E/DX2 analytically  !
 ! D73   D(18,21,23,29)        116.2796         calculate D2E/DX2 analytically  !
 ! D74   D(24,21,23,29)        -61.7589         calculate D2E/DX2 analytically  !
 ! D75   D(18,21,24,32)        176.8769         calculate D2E/DX2 analytically  !
 ! D76   D(23,21,24,32)         -5.0664         calculate D2E/DX2 analytically  !
 ! D77   D(21,23,29,28)         82.509          calculate D2E/DX2 analytically  !
 ! D78   D(21,24,32,31)         -6.3597         calculate D2E/DX2 analytically  !
 ! D79   D(27,25,26,20)        -40.3843         calculate D2E/DX2 analytically  !
 ! D80   D(30,28,29,23)         -8.6241         calculate D2E/DX2 analytically  !
 ! D81   D(29,28,30,31)         18.9403         calculate D2E/DX2 analytically  !
 ! D82   D(29,28,30,33)         27.1291         calculate D2E/DX2 analytically  !
 ! D83   D(28,30,31,32)        -79.7491         calculate D2E/DX2 analytically  !
 ! D84   D(30,31,32,24)         73.3333         calculate D2E/DX2 analytically  !
 ! D85   D(33,31,32,24)         -4.1644         calculate D2E/DX2 analytically  !
 ! D86   D(36,34,35,14)        -69.6069         calculate D2E/DX2 analytically  !
 ! D87   D(39,37,38,11)         -2.845          calculate D2E/DX2 analytically  !
 ! D88   D(38,37,39,12)          2.4698         calculate D2E/DX2 analytically  !
 --------------------------------------------------------------------------------
 Trust Radius=3.00D-01 FncErr=1.00D-07 GrdErr=1.00D-06
 Number of steps in this run=    204 maximum allowed number of steps=    234.
 Search for a saddle point of order  1.
 GradGradGradGradGradGradGradGradGradGradGradGradGradGradGradGradGradGrad

                          Input orientation:                          
 ---------------------------------------------------------------------
 Center     Atomic      Atomic             Coordinates (Angstroms)
 Number     Number       Type             X           Y           Z
 ---------------------------------------------------------------------
      1          6           0       -1.377448    0.013298   -0.406995
      2          6           0       -0.473070    0.201005   -1.559314
      3          6           0       -1.383430    1.006710    0.568889
      4          6           0        0.492527    1.124378   -1.549294
      5          1           0       -0.649867   -0.451089   -2.408298
      6          6           0       -2.632900   -0.860270   -0.573423
      7          6           0       -0.185536    1.683552    0.799413
      8          1           0       -2.159941    0.998117    1.325028
      9          6           0        0.778683    1.965475   -0.342170
     10          1           0        1.149997    1.269884   -2.401555
     11          8           0       -2.847899   -1.306927   -1.717471
     12          8           0       -3.323395   -1.027289    0.471665
     13          1           0       -0.143550    2.414702    1.605414
     14          8           0        0.687525    3.356026   -0.740211
     15          1           0        1.796706    1.753410    0.004817
     16          1           0        1.101948    3.869263   -0.036770
     17          6           0       -0.193381   -1.552825    0.705244
     18          6           0        0.883209   -0.715864    0.956966
     19          1           0       -0.044002   -2.372912    0.011381
     20          1           0       -1.031771   -1.612557    1.384716
     21          6           0        2.194667   -0.907452    0.157662
     22          8           0        0.752810    0.316161    1.724633
     23          8           0        3.043419    0.026425    0.222673
     24          8           0        2.303694   -1.992550   -0.454548
     25          8           0       -2.342702   -0.586131    3.126470
     26          1           0       -1.449200   -0.293218    2.903236
     27          1           0       -2.744726   -0.764766    2.251385
     28          8           0        5.621346   -0.953356    1.039050
     29          1           0        4.745125   -0.534105    1.075718
     30          1           0        5.571536   -1.337782    0.149158
     31          8           0        4.685507   -1.337772   -1.645125
     32          1           0        3.901101   -1.856333   -1.360209
     33          1           0        4.395446   -0.493877   -1.258820
     34          8           0       -2.024333    4.104903   -0.249117
     35          1           0       -1.143721    3.910878   -0.609726
     36          1           0       -2.362625    3.216638   -0.082301
     37          8           0       -5.311622   -2.489657   -0.950480
     38          1           0       -4.588635   -2.255489   -1.557361
     39          1           0       -4.918558   -2.087451   -0.157984
 ---------------------------------------------------------------------
                    Distance matrix (angstroms):
                    1          2          3          4          5
     1  C    0.000000
     2  C    1.476812   0.000000
     3  C    1.392571   2.450952   0.000000
     4  C    2.456858   1.336075   2.831918   0.000000
     5  H    2.179505   1.085015   3.395134   2.127216   0.000000
     6  C    1.538499   2.600606   2.520251   3.828766   2.732511
     7  C    2.380299   2.800752   1.395065   2.507762   3.880941
     8  H    2.140576   3.435164   1.083877   3.913215   4.279982
     9  C    2.909312   2.482273   2.534559   1.498825   3.485602
    10  H    3.456191   2.118070   3.912934   1.086180   2.490242
    11  O    2.371195   2.817567   3.567216   4.134970   2.457854
    12  O    2.375200   3.709169   2.812484   4.824439   3.971643
    13  H    3.367348   3.876150   2.143392   3.467234   4.957721
    14  O    3.943219   3.460068   3.394390   2.381783   4.366378
    15  H    3.643190   3.163598   3.314967   2.124106   4.082727
    16  H    4.599232   4.272580   3.839028   3.192729   5.230530
    17  C    2.256509   2.877910   2.825956   3.566627   3.334118
    18  C    2.739094   3.001967   2.873242   3.133762   3.707483
    19  H    2.765342   3.045691   3.677870   3.867119   3.148861
    20  H    2.443998   3.502637   2.765827   4.292169   3.985199
    21  C    3.731839   3.360581   4.078713   3.152668   3.857952
    22  O    3.028789   3.507186   2.525099   3.382242   4.431399
    23  O    4.465503   3.946093   4.547287   3.294301   4.559648
    24  O    4.192433   3.707103   4.861879   3.767497   3.862223
    25  O    3.711658   5.106043   3.162051   5.729497   5.789437
    26  H    3.325166   4.594719   2.672698   5.060129   5.373663
    27  H    3.088983   4.540326   2.796792   5.337961   5.118542
    28  O    7.211698   6.725024   7.289019   6.109115   7.173883
    29  H    6.323289   5.891803   6.339572   5.265534   6.422710
    30  H    7.100923   6.467148   7.351488   5.894345   6.784737
    31  O    6.333860   5.383875   6.872441   4.863378   5.462129
    32  H    5.680424   4.837939   6.312266   4.531972   4.876937
    33  H    5.857400   4.927028   6.244012   4.235080   5.174777
    34  O    4.145433   4.400392   3.267827   4.112004   5.225733
    35  H    3.909841   3.887756   3.143372   3.365216   4.743997
    36  H    3.367104   3.853054   2.503328   3.831646   4.668621
    37  O    4.694453   5.569733   5.473916   6.863525   5.292726
    38  H    4.096640   4.792937   5.043433   6.102604   4.415184
    39  H    4.124877   5.192602   4.753873   6.444488   5.095421
                    6          7          8          9         10
     6  C    0.000000
     7  C    3.787519   0.000000
     8  H    2.698409   2.155079   0.000000
     9  C    4.435900   1.520661   3.514376   0.000000
    10  H    4.710619   3.492988   4.991690   2.205173   0.000000
    11  O    1.246825   4.729254   3.878571   5.074659   4.805320
    12  O    1.263680   4.159596   2.486790   5.142568   5.791687
    13  H    4.655066   1.089027   2.480154   2.201227   4.363447
    14  O    5.369375   2.435128   4.234738   1.449268   2.706646
    15  H    5.175625   2.136714   4.238924   1.096240   2.538239
    16  H    6.050254   2.670983   4.553888   1.955039   3.514440
    17  C    2.840048   3.237756   3.280060   3.797423   4.407329
    18  C    3.837443   2.631394   3.511974   2.981318   3.910759
    19  H    3.054910   4.134722   4.191265   4.429832   4.529664
    20  H    2.638912   3.452974   2.844635   4.366027   5.234924
    21  C    4.882839   3.576383   4.894543   3.241690   3.518767
    22  O    4.257709   1.899022   3.018090   2.644349   4.253560
    23  O    5.800051   3.674894   5.406878   3.034467   3.466671
    24  O    5.066177   4.613286   5.659949   4.243141   3.970558
    25  O    3.721367   3.901284   2.405917   5.318383   6.797264
    26  H    3.716161   3.151276   2.159500   4.538482   6.110640
    27  H    2.828633   3.827785   2.075540   5.157049   6.399884
    28  O    8.410785   6.382052   8.027357   5.820544   6.064117
    29  H    7.567120   5.413480   7.077415   4.898058   5.317024
    30  H    8.250025   6.534154   8.161791   5.841605   5.732021
    31  O    7.411858   6.231471   7.819101   5.279432   4.457789
    32  H    6.656151   5.821972   7.217660   5.039059   4.292576
    33  H    7.071185   5.473839   7.202459   4.468740   3.866476
    34  O    5.012831   3.216136   3.485461   3.527423   4.769349
    35  H    4.998282   2.804420   3.641449   2.748057   3.930222
    36  H    4.115268   2.804904   2.635051   3.391277   4.637597
    37  O    3.157946   6.837730   5.222604   7.570341   7.615267
    38  H    2.596087   6.360637   4.979224   6.935512   6.787696
    39  H    2.627317   6.126873   4.396592   6.994190   7.289216
                   11         12         13         14         15
    11  O    0.000000
    12  O    2.257567   0.000000
    13  H    5.674997   4.821214   0.000000
    14  O    5.932739   6.063792   2.660589   0.000000
    15  H    5.822739   5.845141   2.600733   2.086559   0.000000
    16  H    6.724507   6.619546   2.522654   0.964359   2.227387
    17  C    3.602288   3.182410   4.068668   5.192509   3.922019
    18  C    4.628513   4.245942   3.357851   4.415766   2.799710
    19  H    3.462238   3.574490   5.046989   5.824153   4.518272
    20  H    3.607672   2.535299   4.129947   5.670812   4.608051
    21  C    5.394736   5.528288   4.312766   4.610303   2.694795
    22  O    5.239046   4.471044   2.285071   3.914141   2.472483
    23  O    6.344258   6.458222   4.215757   4.190898   2.141082
    24  O    5.348267   5.783920   5.445761   5.594718   3.807922
    25  O    4.923265   2.864327   4.019313   6.298738   5.687958
    26  H    4.933041   3.156581   3.274430   5.581871   4.808890
    27  H    4.007044   1.889756   4.158415   6.140922   5.657993
    28  O    8.913559   8.963023   6.700642   6.788161   4.798343
    29  H    8.127310   8.106117   5.733689   5.907185   3.882361
    30  H    8.623928   8.906190   6.990281   6.832011   4.881152
    31  O    7.533817   8.289735   6.925811   6.231731   4.541243
    32  H    6.780744   7.499095   6.587554   6.154686   4.395682
    33  H    7.303250   7.928405   6.104601   5.370232   3.660673
    34  O    5.667648   5.342891   3.135827   2.855900   4.493811
    35  H    5.599715   5.505078   2.854073   1.917902   3.698438
    36  H    4.834451   4.386442   2.900996   3.123410   4.410064
    37  O    2.838495   2.848519   7.569300   8.378901   8.333339
    38  H    1.988861   2.688169   7.181407   7.745625   7.699627
    39  H    2.707184   2.016171   6.795561   7.835726   7.737796
                   16         17         18         19         20
    16  H    0.000000
    17  C    5.623833   0.000000
    18  C    4.696674   1.386692   0.000000
    19  H    6.346674   1.084575   2.121240   0.000000
    20  H    6.051754   1.080809   2.157354   1.854690   0.000000
    21  C    4.903962   2.533599   1.547745   2.679666   3.523171
    22  O    3.981077   2.329708   1.292823   3.286526   2.649571
    23  O    4.313238   3.633701   2.399310   3.915818   4.543543
    24  O    5.998298   2.788164   2.374885   2.423518   3.827873
    25  O    6.459275   3.378818   3.889740   4.263847   2.409522
    26  H    5.698968   2.827518   3.067039   3.829169   2.054460
    27  H    6.442575   3.085604   3.852249   3.859749   2.098590
    28  O    6.696268   5.855070   4.744795   5.930212   6.694624
    29  H    5.822372   5.056074   3.868014   5.239252   5.884817
    30  H    6.864773   5.795666   4.797890   5.711807   6.723523
    31  O    6.522416   5.419781   4.649206   5.117009   6.476319
    32  H    6.509163   4.595976   3.972108   4.208557   5.650422
    33  H    5.601565   5.102573   4.158701   4.985266   6.139578
    34  O    3.142332   6.022713   5.757450   6.778765   6.028593
    35  H    2.317982   5.699504   5.288640   6.409460   5.873556
    36  H    3.525799   5.298455   5.203853   6.052095   5.219620
    37  O    9.077698   5.460354   6.720165   5.355990   4.953743
    38  H    8.497501   4.993133   6.215574   4.809203   4.660521
    39  H    8.470161   4.833041   6.065053   4.885844   4.208629
                   21         22         23         24         25
    21  C    0.000000
    22  O    2.455927   0.000000
    23  O    1.263619   2.754400   0.000000
    24  O    1.250650   3.533301   2.254347   0.000000
    25  O    5.431831   3.515889   6.149598   6.032470   0.000000
    26  H    4.603610   2.570855   5.241299   5.314758   0.966425
    27  H    5.366716   3.698463   6.184196   5.857992   0.979442
    28  O    3.538514   5.077828   2.876135   3.783857   8.241252
    29  H    2.736248   4.133113   1.984360   3.229452   7.378725
    30  H    3.404189   5.332707   2.873646   3.387030   8.489083
    31  O    3.104754   5.436623   2.836575   2.742123   8.528118
    32  H    2.473100   4.914033   2.604978   1.841327   7.792867
    33  H    2.649697   4.777651   2.072079   2.695979   8.040020
    34  O    6.564231   5.095368   6.522168   7.480171   5.788069
    35  H    5.911854   4.687009   5.771829   6.838071   5.968233
    36  H    6.150985   4.624253   6.284567   7.003481   4.975707
    37  O    7.750853   7.197651   8.804185   7.647621   5.390679
    38  H    7.125426   6.776127   8.162347   6.984950   5.456120
    39  H    7.217340   6.440964   8.246602   7.228961   4.435835
                   26         27         28         29         30
    26  H    0.000000
    27  H    1.525010   0.000000
    28  O    7.341907   8.455559   0.000000
    29  H    6.462779   7.585069   0.972049   0.000000
    30  H    7.613593   8.596972   0.970656   1.478974   0.000000
    31  O    7.708003   8.409488   2.868513   2.837679   2.001124
    32  H    7.017550   7.642130   3.087241   2.897310   2.310289
    33  H    7.177943   7.960966   2.644647   2.360924   2.019348
    34  O    5.441652   5.521336   9.257525   8.312710   9.353003
    35  H    5.487134   5.710588   8.493843   7.568164   8.556811
    36  H    4.697538   4.630731   9.076898   8.119679   9.151351
    37  O    5.881647   4.451533  11.218210  10.443554  10.999052
    38  H    5.796851   4.486513  10.615112   9.849637  10.343281
    39  H    4.962538   3.504297  10.668113   9.865175  10.521331
                   31         32         33         34         35
    31  O    0.000000
    32  H    0.982535   0.000000
    33  H    0.972381   1.452908   0.000000
    34  O    8.751771   8.478303   7.961271   0.000000
    35  H    7.912034   7.698972   7.106726   0.971165   0.000000
    36  H    8.535879   8.161026   7.798951   0.965030   1.498624
    37  O   10.087218   9.243551   9.914907   7.401784   7.645545
    38  H    9.319851   8.501401   9.160028   6.981528   7.126677
    39  H    9.747393   8.904221   9.513253   6.835941   7.101649
                   36         37         38         39
    36  H    0.000000
    37  O    6.481676   0.000000
    38  H    6.088932   0.972548   0.000000
    39  H    5.888283   0.971761   1.447530   0.000000
 Stoichiometry    C10H18O11(2-)
 Framework group  C1[X(C10H18O11)]
 Deg. of freedom   111
 Full point group                 C1      NOp   1
 Largest Abelian subgroup         C1      NOp   1
 Largest concise Abelian subgroup C1      NOp   1
                         Standard orientation:                         
 ---------------------------------------------------------------------
 Center     Atomic      Atomic             Coordinates (Angstroms)
 Number     Number       Type             X           Y           Z
 ---------------------------------------------------------------------
      1          6           0       -1.377448    0.013298   -0.406995
      2          6           0       -0.473070    0.201005   -1.559314
      3          6           0       -1.383430    1.006710    0.568889
      4          6           0        0.492527    1.124378   -1.549294
      5          1           0       -0.649867   -0.451089   -2.408298
      6          6           0       -2.632900   -0.860270   -0.573423
      7          6           0       -0.185536    1.683552    0.799413
      8          1           0       -2.159941    0.998117    1.325028
      9          6           0        0.778683    1.965475   -0.342170
     10          1           0        1.149997    1.269884   -2.401555
     11          8           0       -2.847899   -1.306927   -1.717471
     12          8           0       -3.323395   -1.027289    0.471665
     13          1           0       -0.143550    2.414702    1.605414
     14          8           0        0.687525    3.356026   -0.740211
     15          1           0        1.796706    1.753410    0.004817
     16          1           0        1.101948    3.869263   -0.036770
     17          6           0       -0.193381   -1.552825    0.705244
     18          6           0        0.883209   -0.715864    0.956966
     19          1           0       -0.044002   -2.372912    0.011381
     20          1           0       -1.031771   -1.612557    1.384716
     21          6           0        2.194667   -0.907452    0.157662
     22          8           0        0.752810    0.316161    1.724633
     23          8           0        3.043419    0.026425    0.222673
     24          8           0        2.303694   -1.992550   -0.454548
     25          8           0       -2.342702   -0.586131    3.126470
     26          1           0       -1.449200   -0.293218    2.903236
     27          1           0       -2.744726   -0.764766    2.251385
     28          8           0        5.621346   -0.953356    1.039050
     29          1           0        4.745125   -0.534105    1.075718
     30          1           0        5.571536   -1.337782    0.149158
     31          8           0        4.685507   -1.337772   -1.645125
     32          1           0        3.901101   -1.856333   -1.360209
     33          1           0        4.395446   -0.493877   -1.258820
     34          8           0       -2.024333    4.104903   -0.249117
     35          1           0       -1.143721    3.910878   -0.609726
     36          1           0       -2.362625    3.216638   -0.082301
     37          8           0       -5.311622   -2.489657   -0.950480
     38          1           0       -4.588635   -2.255489   -1.557361
     39          1           0       -4.918558   -2.087451   -0.157984
 ---------------------------------------------------------------------
 Rotational constants (GHZ):      0.3552860      0.1762854      0.1514914
 Standard basis: 6-31G(d,p) (6D, 7F)
 There are   405 symmetry adapted cartesian basis functions of A   symmetry.
 There are   405 symmetry adapted basis functions of A   symmetry.
   405 basis functions,   714 primitive gaussians,   405 cartesian basis functions
    84 alpha electrons       84 beta electrons
       nuclear repulsion energy      1903.7205412077 Hartrees.
 NAtoms=   39 NActive=   39 NUniq=   39 SFac= 1.00D+00 NAtFMM=   60 NAOKFM=F Big=F
 Integral buffers will be    131072 words long.
 Raffenetti 2 integral format.
 Two-electron integral symmetry is turned on.
 Nuclear repulsion after empirical dispersion term =     1903.6667807805 Hartrees.
 One-electron integrals computed using PRISM.
 PrsmSu:  requested number of processors reduced to:   8 ShMem   1 Linda.
 NBasis=   405 RedAO= T EigKep=  1.02D-03  NBF=   405
 NBsUse=   405 1.00D-06 EigRej= -1.00D+00 NBFU=   405
 ExpMin= 1.61D-01 ExpMax= 5.48D+03 ExpMxC= 8.25D+02 IAcc=1 IRadAn=         1 AccDes= 0.00D+00
 Harris functional with IExCor=  402 and IRadAn=       1 diagonalized for initial guess.
 HarFok:  IExCor=  402 AccDes= 0.00D+00 IRadAn=         1 IDoV= 1 UseB2=F ITyADJ=14
 ICtDFT=  3500011 ScaDFX=  1.000000  1.000000  1.000000  1.000000
 FoFCou: FMM=F IPFlag=           0 FMFlag=      100000 FMFlg1=           0
         NFxFlg=           0 DoJE=T BraDBF=F KetDBF=T FulRan=T
         wScrn=  0.000000 ICntrl=     500 IOpCl=  0 I1Cent=   200000004 NGrid=           0
         NMat0=    1 NMatS0=      1 NMatT0=    0 NMatD0=    1 NMtDS0=    0 NMtDT0=    0
 Petite list used in FoFCou.
 Requested convergence on RMS density matrix=1.00D-08 within 128 cycles.
 Requested convergence on MAX density matrix=1.00D-06.
 Requested convergence on             energy=1.00D-06.
 No special actions if energy rises.
 Integral accuracy reduced to 1.0D-05 until final iterations.
 Initial convergence to 1.0D-05 achieved.  Increase integral accuracy.
 SCF Done:  E(RB3LYP) =  -1219.44412480     A.U. after   15 cycles
            NFock= 15  Conv=0.64D-08     -V/T= 2.0082
 DoSCS=F DFT=T ScalE2(SS,OS)=  1.000000  1.000000
 Range of M.O.s used for correlation:     1   405
 NBasis=   405 NAE=    84 NBE=    84 NFC=     0 NFV=     0
 NROrb=    405 NOA=    84 NOB=    84 NVA=   321 NVB=   321
 PrsmSu:  requested number of processors reduced to:   8 ShMem   1 Linda.
 PrsmSu:  requested number of processors reduced to:   2 ShMem   4 Linda.
 Symmetrizing basis deriv contribution to polar:
 IMax=3 JMax=2 DiffMx= 0.00D+00
 G2DrvN: will do     1 centers at a time, making   40 passes.
 Estimated number of processors is:   12
 Calling FoFCou, ICntrl=  3107 FMM=F I1Cent=   0 AccDes= 0.00D+00.
 CoulSu:  requested number of processors reduced to:  13 ShMem   4 Linda.
 CalDSu:  requested number of processors reduced to:  16 ShMem   4 Linda.
 Calling FoFCou, ICntrl=  3107 FMM=F I1Cent=   0 AccDes= 0.00D+00.
 CoulSu:  requested number of processors reduced to:  12 ShMem   4 Linda.
 CalDSu:  requested number of processors reduced to:  16 ShMem   4 Linda.
 Calling FoFCou, ICntrl=  3107 FMM=F I1Cent=   0 AccDes= 0.00D+00.
 CoulSu:  requested number of processors reduced to:  12 ShMem   4 Linda.
 CalDSu:  requested number of processors reduced to:  16 ShMem   4 Linda.
 Calling FoFCou, ICntrl=  3107 FMM=F I1Cent=   0 AccDes= 0.00D+00.
 CoulSu:  requested number of processors reduced to:  12 ShMem   4 Linda.
 CalDSu:  requested number of processors reduced to:  16 ShMem   4 Linda.
 Calling FoFCou, ICntrl=  3107 FMM=F I1Cent=   0 AccDes= 0.00D+00.
 CoulSu:  requested number of processors reduced to:  12 ShMem   4 Linda.
 CalDSu:  requested number of processors reduced to:  16 ShMem   4 Linda.
 Calling FoFCou, ICntrl=  3107 FMM=F I1Cent=   0 AccDes= 0.00D+00.
 CoulSu:  requested number of processors reduced to:  12 ShMem   4 Linda.
 CalDSu:  requested number of processors reduced to:  16 ShMem   4 Linda.
 Calling FoFCou, ICntrl=  3107 FMM=F I1Cent=   0 AccDes= 0.00D+00.
 CoulSu:  requested number of processors reduced to:  12 ShMem   4 Linda.
 CalDSu:  requested number of processors reduced to:  16 ShMem   4 Linda.
 Calling FoFCou, ICntrl=  3107 FMM=F I1Cent=   0 AccDes= 0.00D+00.
 CoulSu:  requested number of processors reduced to:  12 ShMem   4 Linda.
 CalDSu:  requested number of processors reduced to:  16 ShMem   4 Linda.
 Calling FoFCou, ICntrl=  3107 FMM=F I1Cent=   0 AccDes= 0.00D+00.
 CoulSu:  requested number of processors reduced to:  12 ShMem   4 Linda.
 CalDSu:  requested number of processors reduced to:  16 ShMem   4 Linda.
 Calling FoFCou, ICntrl=  3107 FMM=F I1Cent=   0 AccDes= 0.00D+00.
 CoulSu:  requested number of processors reduced to:  12 ShMem   4 Linda.
 CalDSu:  requested number of processors reduced to:  16 ShMem   4 Linda.
 Calling FoFCou, ICntrl=  3107 FMM=F I1Cent=   0 AccDes= 0.00D+00.
 CoulSu:  requested number of processors reduced to:  12 ShMem   4 Linda.
 CalDSu:  requested number of processors reduced to:  16 ShMem   4 Linda.
 Calling FoFCou, ICntrl=  3107 FMM=F I1Cent=   0 AccDes= 0.00D+00.
 CoulSu:  requested number of processors reduced to:  12 ShMem   4 Linda.
 CalDSu:  requested number of processors reduced to:  16 ShMem   4 Linda.
 Calling FoFCou, ICntrl=  3107 FMM=F I1Cent=   0 AccDes= 0.00D+00.
 CoulSu:  requested number of processors reduced to:  12 ShMem   4 Linda.
 CalDSu:  requested number of processors reduced to:  16 ShMem   4 Linda.
 Calling FoFCou, ICntrl=  3107 FMM=F I1Cent=   0 AccDes= 0.00D+00.
 CoulSu:  requested number of processors reduced to:  12 ShMem   4 Linda.
 CalDSu:  requested number of processors reduced to:  16 ShMem   4 Linda.
 Calling FoFCou, ICntrl=  3107 FMM=F I1Cent=   0 AccDes= 0.00D+00.
 CoulSu:  requested number of processors reduced to:  12 ShMem   4 Linda.
 CalDSu:  requested number of processors reduced to:  16 ShMem   4 Linda.
 Calling FoFCou, ICntrl=  3107 FMM=F I1Cent=   0 AccDes= 0.00D+00.
 CoulSu:  requested number of processors reduced to:  12 ShMem   4 Linda.
 CalDSu:  requested number of processors reduced to:  16 ShMem   4 Linda.
 Calling FoFCou, ICntrl=  3107 FMM=F I1Cent=   0 AccDes= 0.00D+00.
 CoulSu:  requested number of processors reduced to:  12 ShMem   4 Linda.
 CalDSu:  requested number of processors reduced to:  16 ShMem   4 Linda.
 Calling FoFCou, ICntrl=  3107 FMM=F I1Cent=   0 AccDes= 0.00D+00.
 CoulSu:  requested number of processors reduced to:  12 ShMem   4 Linda.
 CalDSu:  requested number of processors reduced to:  16 ShMem   4 Linda.
 Calling FoFCou, ICntrl=  3107 FMM=F I1Cent=   0 AccDes= 0.00D+00.
 CoulSu:  requested number of processors reduced to:  12 ShMem   4 Linda.
 CalDSu:  requested number of processors reduced to:  16 ShMem   4 Linda.
 Calling FoFCou, ICntrl=  3107 FMM=F I1Cent=   0 AccDes= 0.00D+00.
 CoulSu:  requested number of processors reduced to:  12 ShMem   4 Linda.
 CalDSu:  requested number of processors reduced to:  16 ShMem   4 Linda.
 Calling FoFCou, ICntrl=  3107 FMM=F I1Cent=   0 AccDes= 0.00D+00.
 CoulSu:  requested number of processors reduced to:  12 ShMem   4 Linda.
 CalDSu:  requested number of processors reduced to:  16 ShMem   4 Linda.
 Calling FoFCou, ICntrl=  3107 FMM=F I1Cent=   0 AccDes= 0.00D+00.
 CoulSu:  requested number of processors reduced to:  12 ShMem   4 Linda.
 CalDSu:  requested number of processors reduced to:  16 ShMem   4 Linda.
 Calling FoFCou, ICntrl=  3107 FMM=F I1Cent=   0 AccDes= 0.00D+00.
 CoulSu:  requested number of processors reduced to:  12 ShMem   4 Linda.
 CalDSu:  requested number of processors reduced to:  16 ShMem   4 Linda.
 Calling FoFCou, ICntrl=  3107 FMM=F I1Cent=   0 AccDes= 0.00D+00.
 CoulSu:  requested number of processors reduced to:  12 ShMem   4 Linda.
 CalDSu:  requested number of processors reduced to:  16 ShMem   4 Linda.
 Calling FoFCou, ICntrl=  3107 FMM=F I1Cent=   0 AccDes= 0.00D+00.
 CoulSu:  requested number of processors reduced to:  12 ShMem   4 Linda.
 CalDSu:  requested number of processors reduced to:  16 ShMem   4 Linda.
 Calling FoFCou, ICntrl=  3107 FMM=F I1Cent=   0 AccDes= 0.00D+00.
 CoulSu:  requested number of processors reduced to:  12 ShMem   4 Linda.
 CalDSu:  requested number of processors reduced to:  16 ShMem   4 Linda.
 Calling FoFCou, ICntrl=  3107 FMM=F I1Cent=   0 AccDes= 0.00D+00.
 CoulSu:  requested number of processors reduced to:  12 ShMem   4 Linda.
 CalDSu:  requested number of processors reduced to:  16 ShMem   4 Linda.
 Calling FoFCou, ICntrl=  3107 FMM=F I1Cent=   0 AccDes= 0.00D+00.
 CoulSu:  requested number of processors reduced to:  12 ShMem   4 Linda.
 CalDSu:  requested number of processors reduced to:  16 ShMem   4 Linda.
 Calling FoFCou, ICntrl=  3107 FMM=F I1Cent=   0 AccDes= 0.00D+00.
 CoulSu:  requested number of processors reduced to:  12 ShMem   4 Linda.
 CalDSu:  requested number of processors reduced to:  16 ShMem   4 Linda.
 Calling FoFCou, ICntrl=  3107 FMM=F I1Cent=   0 AccDes= 0.00D+00.
 CoulSu:  requested number of processors reduced to:  12 ShMem   4 Linda.
 CalDSu:  requested number of processors reduced to:  16 ShMem   4 Linda.
 Calling FoFCou, ICntrl=  3107 FMM=F I1Cent=   0 AccDes= 0.00D+00.
 CoulSu:  requested number of processors reduced to:  12 ShMem   4 Linda.
 CalDSu:  requested number of processors reduced to:  16 ShMem   4 Linda.
 Calling FoFCou, ICntrl=  3107 FMM=F I1Cent=   0 AccDes= 0.00D+00.
 CoulSu:  requested number of processors reduced to:  12 ShMem   4 Linda.
 CalDSu:  requested number of processors reduced to:  16 ShMem   4 Linda.
 Calling FoFCou, ICntrl=  3107 FMM=F I1Cent=   0 AccDes= 0.00D+00.
 CoulSu:  requested number of processors reduced to:  12 ShMem   4 Linda.
 CalDSu:  requested number of processors reduced to:  16 ShMem   4 Linda.
 Calling FoFCou, ICntrl=  3107 FMM=F I1Cent=   0 AccDes= 0.00D+00.
 CoulSu:  requested number of processors reduced to:  12 ShMem   4 Linda.
 CalDSu:  requested number of processors reduced to:  16 ShMem   4 Linda.
 Calling FoFCou, ICntrl=  3107 FMM=F I1Cent=   0 AccDes= 0.00D+00.
 CoulSu:  requested number of processors reduced to:  12 ShMem   4 Linda.
 CalDSu:  requested number of processors reduced to:  16 ShMem   4 Linda.
 Calling FoFCou, ICntrl=  3107 FMM=F I1Cent=   0 AccDes= 0.00D+00.
 CoulSu:  requested number of processors reduced to:  12 ShMem   4 Linda.
 CalDSu:  requested number of processors reduced to:  16 ShMem   4 Linda.
 Calling FoFCou, ICntrl=  3107 FMM=F I1Cent=   0 AccDes= 0.00D+00.
 CoulSu:  requested number of processors reduced to:  12 ShMem   4 Linda.
 CalDSu:  requested number of processors reduced to:  16 ShMem   4 Linda.
 Calling FoFCou, ICntrl=  3107 FMM=F I1Cent=   0 AccDes= 0.00D+00.
 CoulSu:  requested number of processors reduced to:  12 ShMem   4 Linda.
 CalDSu:  requested number of processors reduced to:  16 ShMem   4 Linda.
 Calling FoFCou, ICntrl=  3107 FMM=F I1Cent=   0 AccDes= 0.00D+00.
 CoulSu:  requested number of processors reduced to:  12 ShMem   4 Linda.
 CalDSu:  requested number of processors reduced to:  16 ShMem   4 Linda.
 Calling FoFCou, ICntrl=  3107 FMM=F I1Cent=   0 AccDes= 0.00D+00.
 CoulSu:  requested number of processors reduced to:  12 ShMem   4 Linda.
 CalDSu:  requested number of processors reduced to:  16 ShMem   4 Linda.
 End of G2Drv F.D. properties file   721 does not exist.
 End of G2Drv F.D. properties file   722 does not exist.
 End of G2Drv F.D. properties file   788 does not exist.
          IDoAtm=111111111111111111111111111111111111111
          Differentiating once with respect to nuclear coordinates.
 CoulSu:  requested number of processors reduced to:  19 ShMem   4 Linda.
 CalDSu:  requested number of processors reduced to:  15 ShMem   4 Linda.
 CoulSu:  requested number of processors reduced to:  19 ShMem   4 Linda.
 CalDSu:  requested number of processors reduced to:  15 ShMem   4 Linda.
 CoulSu:  requested number of processors reduced to:  19 ShMem   4 Linda.
 CalDSu:  requested number of processors reduced to:  15 ShMem   4 Linda.
 CoulSu:  requested number of processors reduced to:  19 ShMem   4 Linda.
 CalDSu:  requested number of processors reduced to:  15 ShMem   4 Linda.
 CoulSu:  requested number of processors reduced to:  19 ShMem   4 Linda.
 CalDSu:  requested number of processors reduced to:  15 ShMem   4 Linda.
 CoulSu:  requested number of processors reduced to:  19 ShMem   4 Linda.
 CalDSu:  requested number of processors reduced to:  15 ShMem   4 Linda.
 CoulSu:  requested number of processors reduced to:  19 ShMem   4 Linda.
 CalDSu:  requested number of processors reduced to:  15 ShMem   4 Linda.
 CoulSu:  requested number of processors reduced to:  19 ShMem   4 Linda.
 CalDSu:  requested number of processors reduced to:  15 ShMem   4 Linda.
 CoulSu:  requested number of processors reduced to:  19 ShMem   4 Linda.
 CalDSu:  requested number of processors reduced to:  15 ShMem   4 Linda.
 CoulSu:  requested number of processors reduced to:  19 ShMem   4 Linda.
 CalDSu:  requested number of processors reduced to:  15 ShMem   4 Linda.
 CoulSu:  requested number of processors reduced to:  19 ShMem   4 Linda.
 CalDSu:  requested number of processors reduced to:  15 ShMem   4 Linda.
 CoulSu:  requested number of processors reduced to:  19 ShMem   4 Linda.
 CalDSu:  requested number of processors reduced to:  15 ShMem   4 Linda.
 CoulSu:  requested number of processors reduced to:  19 ShMem   4 Linda.
 CalDSu:  requested number of processors reduced to:  15 ShMem   4 Linda.
 CoulSu:  requested number of processors reduced to:  19 ShMem   4 Linda.
 CalDSu:  requested number of processors reduced to:  15 ShMem   4 Linda.
 CoulSu:  requested number of processors reduced to:  19 ShMem   4 Linda.
 CalDSu:  requested number of processors reduced to:  15 ShMem   4 Linda.
          There are   120 degrees of freedom in the 1st order CPHF.  IDoFFX=6 NUNeed=     0.
    117 vectors produced by pass  0 Test12= 2.70D-14 1.00D-09 XBig12= 2.44D-01 9.30D-02.
 AX will form     8 AO Fock derivatives at one time.
 CoulSu:  requested number of processors reduced to:  19 ShMem   4 Linda.
 CalDSu:  requested number of processors reduced to:  15 ShMem   4 Linda.
 CoulSu:  requested number of processors reduced to:  19 ShMem   4 Linda.
 CalDSu:  requested number of processors reduced to:  15 ShMem   4 Linda.
 CoulSu:  requested number of processors reduced to:  19 ShMem   4 Linda.
 CalDSu:  requested number of processors reduced to:  15 ShMem   4 Linda.
 CoulSu:  requested number of processors reduced to:  19 ShMem   4 Linda.
 CalDSu:  requested number of processors reduced to:  15 ShMem   4 Linda.
 CoulSu:  requested number of processors reduced to:  19 ShMem   4 Linda.
 CalDSu:  requested number of processors reduced to:  15 ShMem   4 Linda.
 CoulSu:  requested number of processors reduced to:  19 ShMem   4 Linda.
 CalDSu:  requested number of processors reduced to:  15 ShMem   4 Linda.
 CoulSu:  requested number of processors reduced to:  19 ShMem   4 Linda.
 CalDSu:  requested number of processors reduced to:  15 ShMem   4 Linda.
 CoulSu:  requested number of processors reduced to:  19 ShMem   4 Linda.
 CalDSu:  requested number of processors reduced to:  15 ShMem   4 Linda.
 CoulSu:  requested number of processors reduced to:  19 ShMem   4 Linda.
 CalDSu:  requested number of processors reduced to:  15 ShMem   4 Linda.
 CoulSu:  requested number of processors reduced to:  19 ShMem   4 Linda.
 CalDSu:  requested number of processors reduced to:  15 ShMem   4 Linda.
 CoulSu:  requested number of processors reduced to:  19 ShMem   4 Linda.
 CalDSu:  requested number of processors reduced to:  15 ShMem   4 Linda.
 CoulSu:  requested number of processors reduced to:  19 ShMem   4 Linda.
 CalDSu:  requested number of processors reduced to:  15 ShMem   4 Linda.
 CoulSu:  requested number of processors reduced to:  19 ShMem   4 Linda.
 CalDSu:  requested number of processors reduced to:  15 ShMem   4 Linda.
 CoulSu:  requested number of processors reduced to:  19 ShMem   4 Linda.
 CalDSu:  requested number of processors reduced to:  15 ShMem   4 Linda.
 CalDSu:  requested number of processors reduced to:  17 ShMem   4 Linda.
    117 vectors produced by pass  1 Test12= 2.70D-14 1.00D-09 XBig12= 2.04D-02 3.01D-02.
 CoulSu:  requested number of processors reduced to:  19 ShMem   4 Linda.
 CalDSu:  requested number of processors reduced to:  15 ShMem   4 Linda.
 CoulSu:  requested number of processors reduced to:  19 ShMem   4 Linda.
 CalDSu:  requested number of processors reduced to:  15 ShMem   4 Linda.
 CoulSu:  requested number of processors reduced to:  19 ShMem   4 Linda.
 CalDSu:  requested number of processors reduced to:  15 ShMem   4 Linda.
 CoulSu:  requested number of processors reduced to:  19 ShMem   4 Linda.
 CalDSu:  requested number of processors reduced to:  15 ShMem   4 Linda.
 CoulSu:  requested number of processors reduced to:  19 ShMem   4 Linda.
 CalDSu:  requested number of processors reduced to:  15 ShMem   4 Linda.
 CoulSu:  requested number of processors reduced to:  19 ShMem   4 Linda.
 CalDSu:  requested number of processors reduced to:  15 ShMem   4 Linda.
 CoulSu:  requested number of processors reduced to:  19 ShMem   4 Linda.
 CalDSu:  requested number of processors reduced to:  15 ShMem   4 Linda.
 CoulSu:  requested number of processors reduced to:  19 ShMem   4 Linda.
 CalDSu:  requested number of processors reduced to:  15 ShMem   4 Linda.
 CoulSu:  requested number of processors reduced to:  19 ShMem   4 Linda.
 CalDSu:  requested number of processors reduced to:  15 ShMem   4 Linda.
 CoulSu:  requested number of processors reduced to:  19 ShMem   4 Linda.
 CalDSu:  requested number of processors reduced to:  15 ShMem   4 Linda.
 CoulSu:  requested number of processors reduced to:  19 ShMem   4 Linda.
 CalDSu:  requested number of processors reduced to:  15 ShMem   4 Linda.
 CoulSu:  requested number of processors reduced to:  19 ShMem   4 Linda.
 CalDSu:  requested number of processors reduced to:  15 ShMem   4 Linda.
 CoulSu:  requested number of processors reduced to:  19 ShMem   4 Linda.
 CalDSu:  requested number of processors reduced to:  15 ShMem   4 Linda.
 CoulSu:  requested number of processors reduced to:  19 ShMem   4 Linda.
 CalDSu:  requested number of processors reduced to:  15 ShMem   4 Linda.
 CalDSu:  requested number of processors reduced to:  17 ShMem   4 Linda.
    115 vectors produced by pass  2 Test12= 2.70D-14 1.00D-09 XBig12= 2.05D-04 2.40D-03.
 CoulSu:  requested number of processors reduced to:  19 ShMem   4 Linda.
 CalDSu:  requested number of processors reduced to:  15 ShMem   4 Linda.
 CoulSu:  requested number of processors reduced to:  19 ShMem   4 Linda.
 CalDSu:  requested number of processors reduced to:  15 ShMem   4 Linda.
 CoulSu:  requested number of processors reduced to:  19 ShMem   4 Linda.
 CalDSu:  requested number of processors reduced to:  15 ShMem   4 Linda.
 CoulSu:  requested number of processors reduced to:  19 ShMem   4 Linda.
 CalDSu:  requested number of processors reduced to:  15 ShMem   4 Linda.
 CoulSu:  requested number of processors reduced to:  19 ShMem   4 Linda.
 CalDSu:  requested number of processors reduced to:  15 ShMem   4 Linda.
 CoulSu:  requested number of processors reduced to:  19 ShMem   4 Linda.
 CalDSu:  requested number of processors reduced to:  15 ShMem   4 Linda.
 CoulSu:  requested number of processors reduced to:  19 ShMem   4 Linda.
 CalDSu:  requested number of processors reduced to:  15 ShMem   4 Linda.
 CoulSu:  requested number of processors reduced to:  19 ShMem   4 Linda.
 CalDSu:  requested number of processors reduced to:  15 ShMem   4 Linda.
 CoulSu:  requested number of processors reduced to:  19 ShMem   4 Linda.
 CalDSu:  requested number of processors reduced to:  15 ShMem   4 Linda.
 CoulSu:  requested number of processors reduced to:  19 ShMem   4 Linda.
 CalDSu:  requested number of processors reduced to:  15 ShMem   4 Linda.
 CoulSu:  requested number of processors reduced to:  19 ShMem   4 Linda.
 CalDSu:  requested number of processors reduced to:  15 ShMem   4 Linda.
 CoulSu:  requested number of processors reduced to:  19 ShMem   4 Linda.
 CalDSu:  requested number of processors reduced to:  15 ShMem   4 Linda.
 CoulSu:  requested number of processors reduced to:  19 ShMem   4 Linda.
 CalDSu:  requested number of processors reduced to:  15 ShMem   4 Linda.
 CoulSu:  requested number of processors reduced to:  19 ShMem   4 Linda.
 CalDSu:  requested number of processors reduced to:  15 ShMem   4 Linda.
 CalDSu:  requested number of processors reduced to:  18 ShMem   4 Linda.
    114 vectors produced by pass  3 Test12= 2.70D-14 1.00D-09 XBig12= 1.07D-06 1.17D-04.
 CalDSu:  requested number of processors reduced to:  15 ShMem   4 Linda.
 CalDSu:  requested number of processors reduced to:  15 ShMem   4 Linda.
 CalDSu:  requested number of processors reduced to:  15 ShMem   4 Linda.
 CalDSu:  requested number of processors reduced to:  15 ShMem   4 Linda.
 CalDSu:  requested number of processors reduced to:  15 ShMem   4 Linda.
 CalDSu:  requested number of processors reduced to:  15 ShMem   4 Linda.
 CalDSu:  requested number of processors reduced to:  15 ShMem   4 Linda.
 CalDSu:  requested number of processors reduced to:  15 ShMem   4 Linda.
 CalDSu:  requested number of processors reduced to:  15 ShMem   4 Linda.
 CalDSu:  requested number of processors reduced to:  15 ShMem   4 Linda.
 CalDSu:  requested number of processors reduced to:  15 ShMem   4 Linda.
 CalDSu:  requested number of processors reduced to:  15 ShMem   4 Linda.
 CalDSu:  requested number of processors reduced to:  15 ShMem   4 Linda.
 CalDSu:  requested number of processors reduced to:  15 ShMem   4 Linda.
 CalDSu:  requested number of processors reduced to:  19 ShMem   4 Linda.
    114 vectors produced by pass  4 Test12= 2.70D-14 1.00D-09 XBig12= 1.82D-09 3.68D-06.
 CalDSu:  requested number of processors reduced to:  15 ShMem   4 Linda.
 CalDSu:  requested number of processors reduced to:  15 ShMem   4 Linda.
 CalDSu:  requested number of processors reduced to:  15 ShMem   4 Linda.
 CalDSu:  requested number of processors reduced to:  15 ShMem   4 Linda.
 CalDSu:  requested number of processors reduced to:  15 ShMem   4 Linda.
 CalDSu:  requested number of processors reduced to:  15 ShMem   4 Linda.
 CalDSu:  requested number of processors reduced to:  15 ShMem   4 Linda.
 CalDSu:  requested number of processors reduced to:  15 ShMem   4 Linda.
 CalDSu:  requested number of processors reduced to:  15 ShMem   4 Linda.
 CalDSu:  requested number of processors reduced to:  15 ShMem   4 Linda.
 CalDSu:  requested number of processors reduced to:  15 ShMem   4 Linda.
 CalDSu:  requested number of processors reduced to:  15 ShMem   4 Linda.
 CalDSu:  requested number of processors reduced to:  15 ShMem   4 Linda.
 CalDSu:  requested number of processors reduced to:  15 ShMem   4 Linda.
 CalDSu:  requested number of processors reduced to:  19 ShMem   4 Linda.
    102 vectors produced by pass  5 Test12= 2.70D-14 1.00D-09 XBig12= 2.12D-12 1.36D-07.
 CalDSu:  requested number of processors reduced to:  15 ShMem   4 Linda.
 CalDSu:  requested number of processors reduced to:  15 ShMem   4 Linda.
 CalDSu:  requested number of processors reduced to:  15 ShMem   4 Linda.
 CalDSu:  requested number of processors reduced to:  15 ShMem   4 Linda.
 CalDSu:  requested number of processors reduced to:  15 ShMem   4 Linda.
 CalDSu:  requested number of processors reduced to:  15 ShMem   4 Linda.
 CalDSu:  requested number of processors reduced to:  15 ShMem   4 Linda.
 CalDSu:  requested number of processors reduced to:  15 ShMem   4 Linda.
 CalDSu:  requested number of processors reduced to:  15 ShMem   4 Linda.
 CalDSu:  requested number of processors reduced to:  15 ShMem   4 Linda.
 CalDSu:  requested number of processors reduced to:  15 ShMem   4 Linda.
 CalDSu:  requested number of processors reduced to:  15 ShMem   4 Linda.
 CalDSu:  requested number of processors reduced to:  16 ShMem   4 Linda.
     20 vectors produced by pass  6 Test12= 2.70D-14 1.00D-09 XBig12= 2.52D-15 4.31D-09.
 CalDSu:  requested number of processors reduced to:  16 ShMem   4 Linda.
 CalDSu:  requested number of processors reduced to:  16 ShMem   4 Linda.
 CalDSu:  requested number of processors reduced to:  16 ShMem   4 Linda.
 InvSVY:  IOpt=1 It=  1 EMax= 1.17D-15
 Solved reduced A of dimension   699 with   120 vectors.
 End of Minotr F.D. properties file   721 does not exist.
 End of Minotr F.D. properties file   722 does not exist.
 End of Minotr F.D. properties file   788 does not exist.

 **********************************************************************

            Population analysis using the SCF density.

 **********************************************************************

 Orbital symmetries:
       Occupied  (A) (A) (A) (A) (A) (A) (A) (A) (A) (A) (A) (A)
                 (A) (A) (A) (A) (A) (A) (A) (A) (A) (A) (A) (A)
                 (A) (A) (A) (A) (A) (A) (A) (A) (A) (A) (A) (A)
                 (A) (A) (A) (A) (A) (A) (A) (A) (A) (A) (A) (A)
                 (A) (A) (A) (A) (A) (A) (A) (A) (A) (A) (A) (A)
                 (A) (A) (A) (A) (A) (A) (A) (A) (A) (A) (A) (A)
                 (A) (A) (A) (A) (A) (A) (A) (A) (A) (A) (A) (A)
       Virtual   (A) (A) (A) (A) (A) (A) (A) (A) (A) (A) (A) (A)
                 (A) (A) (A) (A) (A) (A) (A) (A) (A) (A) (A) (A)
                 (A) (A) (A) (A) (A) (A) (A) (A) (A) (A) (A) (A)
                 (A) (A) (A) (A) (A) (A) (A) (A) (A) (A) (A) (A)
                 (A) (A) (A) (A) (A) (A) (A) (A) (A) (A) (A) (A)
                 (A) (A) (A) (A) (A) (A) (A) (A) (A) (A) (A) (A)
                 (A) (A) (A) (A) (A) (A) (A) (A) (A) (A) (A) (A)
                 (A) (A) (A) (A) (A) (A) (A) (A) (A) (A) (A) (A)
                 (A) (A) (A) (A) (A) (A) (A) (A) (A) (A) (A) (A)
                 (A) (A) (A) (A) (A) (A) (A) (A) (A) (A) (A) (A)
                 (A) (A) (A) (A) (A) (A) (A) (A) (A) (A) (A) (A)
                 (A) (A) (A) (A) (A) (A) (A) (A) (A) (A) (A) (A)
                 (A) (A) (A) (A) (A) (A) (A) (A) (A) (A) (A) (A)
                 (A) (A) (A) (A) (A) (A) (A) (A) (A) (A) (A) (A)
                 (A) (A) (A) (A) (A) (A) (A) (A) (A) (A) (A) (A)
                 (A) (A) (A) (A) (A) (A) (A) (A) (A) (A) (A) (A)
                 (A) (A) (A) (A) (A) (A) (A) (A) (A) (A) (A) (A)
                 (A) (A) (A) (A) (A) (A) (A) (A) (A) (A) (A) (A)
                 (A) (A) (A) (A) (A) (A) (A) (A) (A) (A) (A) (A)
                 (A) (A) (A) (A) (A) (A) (A) (A) (A) (A) (A) (A)
                 (A) (A) (A) (A) (A) (A) (A) (A) (A) (A) (A) (A)
                 (A) (A) (A) (A) (A) (A) (A) (A) (A) (A) (A) (A)
                 (A) (A) (A) (A) (A) (A) (A) (A) (A) (A) (A) (A)
                 (A) (A) (A) (A) (A) (A) (A) (A) (A) (A) (A) (A)
                 (A) (A) (A) (A) (A) (A) (A) (A) (A) (A) (A) (A)
                 (A) (A) (A) (A) (A) (A) (A) (A) (A) (A) (A) (A)
                 (A) (A) (A) (A) (A) (A) (A) (A) (A)
 The electronic state is 1-A.
 Alpha  occ. eigenvalues --  -18.98111 -18.93694 -18.92823 -18.90884 -18.89754
 Alpha  occ. eigenvalues --  -18.88374 -18.87588 -18.87394 -18.87382 -18.87131
 Alpha  occ. eigenvalues --  -18.87112 -10.05702 -10.04882 -10.04380 -10.02715
 Alpha  occ. eigenvalues --  -10.01858 -10.00290  -9.98692  -9.98424  -9.97216
 Alpha  occ. eigenvalues --   -9.96961  -0.84837  -0.81667  -0.80916  -0.79349
 Alpha  occ. eigenvalues --   -0.78929  -0.76722  -0.75857  -0.74298  -0.73596
 Alpha  occ. eigenvalues --   -0.72098  -0.71525  -0.64136  -0.55226  -0.54736
 Alpha  occ. eigenvalues --   -0.50775  -0.42855  -0.40177  -0.37930  -0.33524
 Alpha  occ. eigenvalues --   -0.33137  -0.31179  -0.29331  -0.28541  -0.27518
 Alpha  occ. eigenvalues --   -0.26216  -0.25999  -0.25701  -0.24454  -0.24010
 Alpha  occ. eigenvalues --   -0.23619  -0.22952  -0.22508  -0.21990  -0.20884
 Alpha  occ. eigenvalues --   -0.19188  -0.18965  -0.18223  -0.17962  -0.17094
 Alpha  occ. eigenvalues --   -0.16931  -0.16288  -0.15772  -0.15395  -0.14235
 Alpha  occ. eigenvalues --   -0.13509  -0.13373  -0.12713  -0.11206  -0.09516
 Alpha  occ. eigenvalues --   -0.08925  -0.07515  -0.07030  -0.06037  -0.04848
 Alpha  occ. eigenvalues --   -0.03931  -0.03293  -0.03082  -0.02842  -0.02777
 Alpha  occ. eigenvalues --   -0.02237  -0.01664  -0.00806  -0.00022
 Alpha virt. eigenvalues --    0.14764   0.19768   0.22764   0.24916   0.26495
 Alpha virt. eigenvalues --    0.29774   0.31232   0.32780   0.33463   0.34420
 Alpha virt. eigenvalues --    0.34990   0.36358   0.36798   0.37683   0.38673
 Alpha virt. eigenvalues --    0.39632   0.40152   0.40746   0.41201   0.41778
 Alpha virt. eigenvalues --    0.42658   0.43798   0.44235   0.44865   0.46091
 Alpha virt. eigenvalues --    0.46909   0.47681   0.49452   0.51324   0.53298
 Alpha virt. eigenvalues --    0.54242   0.56129   0.57412   0.59423   0.60528
 Alpha virt. eigenvalues --    0.63220   0.65090   0.68066   0.69528   0.71430
 Alpha virt. eigenvalues --    0.73931   0.76416   0.77151   0.78790   0.79282
 Alpha virt. eigenvalues --    0.79405   0.82126   0.82457   0.83134   0.83877
 Alpha virt. eigenvalues --    0.84716   0.85648   0.86848   0.87882   0.88678
 Alpha virt. eigenvalues --    0.90182   0.90622   0.92676   0.93311   0.94407
 Alpha virt. eigenvalues --    0.95093   0.96714   0.97891   0.98263   0.98529
 Alpha virt. eigenvalues --    0.98812   0.98886   0.99937   1.00608   1.01241
 Alpha virt. eigenvalues --    1.02090   1.02246   1.02963   1.03765   1.04171
 Alpha virt. eigenvalues --    1.04602   1.05768   1.06006   1.06379   1.07116
 Alpha virt. eigenvalues --    1.07411   1.08216   1.09198   1.10708   1.11185
 Alpha virt. eigenvalues --    1.12877   1.13521   1.13635   1.14241   1.16204
 Alpha virt. eigenvalues --    1.16696   1.17165   1.19053   1.19742   1.21003
 Alpha virt. eigenvalues --    1.21678   1.21866   1.23238   1.24900   1.25838
 Alpha virt. eigenvalues --    1.26128   1.26516   1.28295   1.28995   1.29529
 Alpha virt. eigenvalues --    1.29979   1.31048   1.31448   1.33880   1.34122
 Alpha virt. eigenvalues --    1.35211   1.36120   1.37075   1.38706   1.39222
 Alpha virt. eigenvalues --    1.41375   1.42851   1.43315   1.45095   1.45980
 Alpha virt. eigenvalues --    1.47371   1.49051   1.50802   1.51903   1.52587
 Alpha virt. eigenvalues --    1.53703   1.55140   1.55926   1.57066   1.57710
 Alpha virt. eigenvalues --    1.58779   1.60397   1.60957   1.62343   1.63838
 Alpha virt. eigenvalues --    1.64631   1.64715   1.67099   1.69387   1.70016
 Alpha virt. eigenvalues --    1.71244   1.72474   1.74340   1.75104   1.75636
 Alpha virt. eigenvalues --    1.76391   1.77184   1.77754   1.78561   1.79973
 Alpha virt. eigenvalues --    1.80711   1.81312   1.81564   1.83780   1.84431
 Alpha virt. eigenvalues --    1.84621   1.84959   1.86629   1.87041   1.87559
 Alpha virt. eigenvalues --    1.88555   1.90424   1.91147   1.91628   1.92182
 Alpha virt. eigenvalues --    1.93093   1.94570   1.96481   1.97572   1.97748
 Alpha virt. eigenvalues --    1.98830   2.00215   2.03525   2.04611   2.05412
 Alpha virt. eigenvalues --    2.07179   2.08370   2.10095   2.11672   2.12352
 Alpha virt. eigenvalues --    2.13273   2.13701   2.14560   2.15747   2.18098
 Alpha virt. eigenvalues --    2.18478   2.20618   2.21290   2.22282   2.23846
 Alpha virt. eigenvalues --    2.25762   2.26444   2.28783   2.29240   2.31526
 Alpha virt. eigenvalues --    2.32028   2.32466   2.34523   2.36396   2.37032
 Alpha virt. eigenvalues --    2.37971   2.40062   2.41596   2.45792   2.48986
 Alpha virt. eigenvalues --    2.50227   2.50819   2.51403   2.52445   2.53419
 Alpha virt. eigenvalues --    2.54168   2.54669   2.55724   2.56030   2.56549
 Alpha virt. eigenvalues --    2.57826   2.58466   2.60159   2.61317   2.61925
 Alpha virt. eigenvalues --    2.63702   2.65790   2.66777   2.67006   2.68429
 Alpha virt. eigenvalues --    2.68501   2.69419   2.70838   2.71749   2.72438
 Alpha virt. eigenvalues --    2.73081   2.73676   2.74109   2.74940   2.75758
 Alpha virt. eigenvalues --    2.76213   2.77356   2.80089   2.81130   2.83187
 Alpha virt. eigenvalues --    2.83564   2.84895   2.85949   2.86850   2.87090
 Alpha virt. eigenvalues --    2.87913   2.88094   2.88908   2.90591   2.92185
 Alpha virt. eigenvalues --    2.93087   2.94460   2.94645   2.95936   2.96825
 Alpha virt. eigenvalues --    2.96971   2.97266   2.98073   2.99803   3.01037
 Alpha virt. eigenvalues --    3.03537   3.05746   3.07455   3.10643   3.13517
 Alpha virt. eigenvalues --    3.16217   3.17719   3.18989   3.20381   3.22487
 Alpha virt. eigenvalues --    3.23689   3.25232   3.26869   3.27539   3.27853
 Alpha virt. eigenvalues --    3.29024   3.31137   3.31827   3.36834   3.42168
 Alpha virt. eigenvalues --    3.44094   3.47352   3.48905   3.55294   3.59429
 Alpha virt. eigenvalues --    3.59974   3.62075   3.63012   3.63456   3.64140
 Alpha virt. eigenvalues --    3.64422   3.67303   3.74184   3.80392   3.81838
 Alpha virt. eigenvalues --    3.84581   3.85251   3.86004   3.86874   3.90639
 Alpha virt. eigenvalues --    3.98067   3.98853   3.99433   4.06982   4.10494
 Alpha virt. eigenvalues --    4.27320   4.27925   4.36014   4.41863   4.45237
 Alpha virt. eigenvalues --    4.50731   4.59358   4.63694   4.65909   4.77601
 Alpha virt. eigenvalues --    4.80711   4.89049   4.91304   4.97438   5.04424
 Alpha virt. eigenvalues --    5.08046
          Condensed to atoms (all electrons):
               1          2          3          4          5          6
     1  C    5.260376   0.341752   0.432000  -0.010977  -0.051266   0.314264
     2  C    0.341752   4.900743  -0.049688   0.567988   0.366696  -0.033486
     3  C    0.432000  -0.049688   5.160452  -0.034987   0.007666  -0.035515
     4  C   -0.010977   0.567988  -0.034987   4.988339  -0.049537   0.005119
     5  H   -0.051266   0.366696   0.007666  -0.049537   0.623710  -0.007929
     6  C    0.314264  -0.033486  -0.035515   0.005119  -0.007929   4.323213
     7  C    0.008979  -0.029768   0.388697  -0.029343  -0.000376   0.005449
     8  H   -0.049779   0.007270   0.348530  -0.000393  -0.000111  -0.008881
     9  C   -0.047716  -0.012704  -0.010082   0.361046   0.005833  -0.000002
    10  H    0.004871  -0.034771   0.000067   0.362149  -0.007939  -0.000078
    11  O   -0.106976   0.005005   0.001894   0.001065   0.019657   0.471842
    12  O   -0.102683   0.004480   0.002844  -0.000073   0.000324   0.381909
    13  H    0.005131   0.000436  -0.035575   0.004646   0.000017  -0.000117
    14  O    0.000449  -0.000292   0.000925  -0.041080  -0.000059   0.000002
    15  H   -0.000141   0.001021   0.005477  -0.040085  -0.000138  -0.000001
    16  H   -0.000056  -0.000077  -0.000069   0.007000   0.000007   0.000000
    17  C    0.096858  -0.011818  -0.017548  -0.007820   0.000932  -0.009385
    18  C   -0.006730  -0.007162  -0.023602  -0.000824   0.000191   0.000117
    19  H   -0.003836  -0.001922   0.001858   0.000036   0.000542   0.000363
    20  H   -0.011600   0.001807  -0.007665   0.000101   0.000012  -0.005143
    21  C   -0.003522   0.003389   0.000050   0.000853   0.000214  -0.000071
    22  O   -0.014964  -0.002986  -0.048933   0.002962  -0.000030   0.000068
    23  O    0.000098  -0.000494   0.000105   0.002236  -0.000006   0.000000
    24  O   -0.000225   0.000684   0.000008  -0.001062   0.000006   0.000005
    25  O   -0.000891   0.000003  -0.008341  -0.000001   0.000000  -0.000327
    26  H   -0.001878   0.000067   0.002596  -0.000016   0.000000  -0.000114
    27  H   -0.001141  -0.000075   0.000260  -0.000001  -0.000005  -0.001265
    28  O    0.000000   0.000000   0.000000   0.000000   0.000000   0.000000
    29  H    0.000000   0.000001   0.000000   0.000000   0.000000   0.000000
    30  H    0.000000   0.000000   0.000000   0.000000   0.000000   0.000000
    31  O    0.000000   0.000001   0.000000  -0.000014   0.000000   0.000000
    32  H   -0.000001  -0.000006   0.000000   0.000012   0.000002   0.000000
    33  H    0.000000  -0.000011   0.000000   0.000047   0.000000   0.000000
    34  O   -0.000279  -0.000016  -0.004706   0.000007   0.000000  -0.000003
    35  H   -0.000372   0.000755   0.003793  -0.000219   0.000000  -0.000010
    36  H    0.000382   0.000166   0.021971  -0.000438   0.000002  -0.000023
    37  O   -0.000045   0.000003   0.000002   0.000000   0.000003   0.001378
    38  H    0.001264  -0.000038  -0.000019   0.000000  -0.000043   0.003339
    39  H    0.001016  -0.000019  -0.000023   0.000000  -0.000003   0.003498
               7          8          9         10         11         12
     1  C    0.008979  -0.049779  -0.047716   0.004871  -0.106976  -0.102683
     2  C   -0.029768   0.007270  -0.012704  -0.034771   0.005005   0.004480
     3  C    0.388697   0.348530  -0.010082   0.000067   0.001894   0.002844
     4  C   -0.029343  -0.000393   0.361046   0.362149   0.001065  -0.000073
     5  H   -0.000376  -0.000111   0.005833  -0.007939   0.019657   0.000324
     6  C    0.005449  -0.008881  -0.000002  -0.000078   0.471842   0.381909
     7  C    5.117937  -0.050746   0.300461   0.005396  -0.000093   0.000667
     8  H   -0.050746   0.635244   0.004830   0.000014   0.000142   0.009915
     9  C    0.300461   0.004830   4.965647  -0.049965  -0.000021  -0.000013
    10  H    0.005396   0.000014  -0.049965   0.658999   0.000003   0.000000
    11  O   -0.000093   0.000142  -0.000021   0.000003   8.262161  -0.083761
    12  O    0.000667   0.009915  -0.000013   0.000000  -0.083761   8.339426
    13  H    0.360912  -0.007230  -0.050192  -0.000175   0.000001   0.000008
    14  O   -0.038461  -0.000052   0.142225   0.002828   0.000000   0.000000
[...]
 8767,0.00019713,0.00033426,0.00028533,-0.00031851,-0.00000848,0.000040
 52,0.00001413,-0.00062758,-0.00031759,-0.00000901,-0.00016553,-0.00015
 860,0.00083007,0.00004485,0.00015430,-0.00010667,0.00315551,-0.0040029
 2,0.00026683,-0.00002422,-0.00001250,0.00007084,0.00037612,0.00021218,
 0.00014844,0.00045801,0.00014502,-0.00015031,-0.00001572,-0.00002795,0
 .00008014,-0.00286513,-0.00573848,-0.00053342,0.00010650,-0.00010729,0
 .00001668,-0.00219932,0.00224103,0.00018201,-0.00072538,-0.00002961,-0
 .00020480,0.00049938,0.00096338,0.00043095,0.00001140,0.00003830,-0.00
 002938,-0.00001643,-0.00001648,0.00006439,0.00048396,-0.00004789,-0.00
 022153,0.00025561,-0.00084963,-0.00031963,-0.00043587,0.00003430,0.000
 01695,-0.00035727,0.00018013,0.00022553,0.00015029,-0.00002285,-0.0002
 3319,-0.00006069,0.00001382,0.00014635,-0.00010994,-0.00000648,0.00008
 717,-0.00017237,-0.00000274,-0.00005234,0.00015251,-0.00000110,0.00006
 466,0.00006801,-0.00000562,0.00001534,-0.00023450,-0.00000688,0.000112
 45,0.00020906,0.00000372,-0.00011243,0.00011160,-0.00000296,-0.0000675
 5,0.11668623,-0.07308456,-0.03995678,-0.06821833,0.07849490,-0.0004657
 3,0.00043011,0.00086715,-0.00026276,-0.00013335,0.00015617,-0.00004443
 ,-0.00101806,-0.00055593,0.00035144,0.00047246,-0.00018582,-0.00000743
 ,-0.00003613,-0.00006317,0.00024898,0.00019179,0.00030540,-0.00006015,
 0.00170197,0.00071367,0.00005643,0.00005463,-0.00006676,-0.00158491,0.
 00002983,0.00004252,0.00014559,-0.00013584,-0.00008392,-0.00015681,-0.
 00010803,-0.00035407,-0.00007756,-0.00006648,-0.00018685,-0.00019332,-
 0.00016123,-0.00073149,0.00258851,-0.00170957,-0.00556032,0.00025415,0
 .00044792,-0.00000395,-0.00394318,0.00159592,0.00016996,0.00050084,-0.
 00001041,-0.00003899,-0.00019626,-0.00067239,-0.00022419,0.00001645,-0
 .00005419,0.00004944,-0.00001751,0.00004592,-0.00006555,-0.00034986,-0
 .00013177,0.00013722,-0.00036645,0.00064151,-0.00034827,0.00016328,0.0
 0019144,-0.00011155,0.00020355,-0.00001518,-0.00012034,-0.00004378,-0.
 00010303,0.00002026,-0.00000840,0.00004459,-0.00001827,0.00005410,0.00
 004647,0.00002929,0.00004708,0.00000283,-0.00002142,-0.00004038,-0.000
 00035,0.00000352,-0.00001454,-0.00000070,0.00001500,0.00007140,0.00002
 424,-0.00008909,-0.00008511,-0.00001300,0.00006272,-0.00002835,-0.0000
 1083,0.00004906,0.13549229,-0.02130309,-0.05663992,-0.14071606,0.02304
 471,0.06363455,-0.00042697,0.00130924,0.00128337,0.00011443,0.00002377
 ,0.00014026,-0.00021245,-0.00114521,-0.00142682,-0.00011519,0.00001737
 ,0.00005478,0.00005498,-0.00003767,-0.00004879,0.00105855,0.00050582,-
 0.00005260,0.00029389,-0.00009789,0.00036413,0.00004198,-0.00016773,0.
 00025925,-0.00119563,0.00046286,0.00006588,0.00004283,-0.00002769,-0.0
 0005832,-0.00059482,-0.00023955,-0.00026162,-0.00077638,-0.00005305,0.
 00020039,-0.00017540,0.00000208,-0.00039399,0.00025310,0.00128675,-0.0
 0016897,0.00001294,0.00008150,0.00000352,0.00014729,-0.00031328,0.0000
 9430,0.00123730,0.00000080,0.00034770,-0.00059504,-0.00170757,-0.00079
 807,0.00001971,-0.00008072,0.00007159,-0.00000787,0.00006310,-0.000144
 15,-0.00065054,-0.00005215,0.00025959,-0.00070005,0.00159300,0.0001464
 9,0.00043623,0.00012938,-0.00006561,0.00039379,-0.00013871,-0.00023253
 ,-0.00027447,0.00007900,0.00021171,0.00008752,-0.00000770,-0.00016396,
 0.00021016,-0.00003924,-0.00005890,0.00014984,-0.00000700,0.00004281,-
 0.00013235,0.00000328,-0.00005353,-0.00005922,0.00000789,-0.00001129,0
 .00021249,0.00000672,-0.00011360,-0.00020102,-0.00000485,0.00011245,-0
 .00009371,0.00000056,0.00006329,-0.10551378,-0.13269136,0.03653094,-0.
 02118634,-0.04683325,0.00843768,0.12803987,0.00026888,-0.00111529,-0.0
 0127857,0.00000333,-0.00006725,-0.00024742,-0.00171424,0.00027718,0.00
 055544,-0.00010117,-0.00021009,0.00013809,-0.00004408,0.00001850,0.000
 07342,-0.00076935,-0.00058736,-0.00011609,0.00299068,-0.00053568,0.001
 55379,0.00018489,-0.00049175,0.00049426,0.00042254,0.00137781,-0.00025
 626,-0.00011645,0.00007321,0.00003491,0.00041447,0.00030544,0.00029955
 ,0.00044202,0.00029038,-0.00013792,-0.00033374,-0.00001989,-0.00035385
 ,0.00142705,-0.00183100,0.00009919,-0.00009822,-0.00021065,0.00013992,
 -0.00016592,0.00005556,-0.00002567,-0.00036210,-0.00008927,-0.00007053
 ,0.00002556,0.00025159,-0.00019122,0.00000508,0.00004801,-0.00001588,-
 0.00001596,-0.00001042,0.00007531,0.00055687,-0.00001845,-0.00015269,-
 0.00049357,0.00058688,-0.00033348,-0.00041476,-0.00010753,0.00004350,-
 0.00032026,0.00012095,0.00016014,0.00009901,0.00001449,-0.00027164,-0.
 00002515,-0.00001075,0.00015449,-0.00007122,-0.00004123,0.00014418,-0.
 00013400,-0.00000773,-0.00003809,0.00012207,0.00000672,0.00005022,0.00
 005164,-0.00000326,0.00000963,-0.00018113,-0.00001181,0.00009302,0.000
 16652,0.00000670,-0.00009241,0.00008407,0.00000384,-0.00005612,-0.1871
 7625,-0.43261369,0.06876369,0.00735522,0.00193843,-0.00330140,0.178011
 21,0.43267324,-0.00026087,0.00041122,0.00100169,0.00008842,0.00000382,
 -0.00022469,-0.00035248,-0.00090847,-0.00033630,0.00025121,0.00030071,
 -0.00032888,0.00003386,-0.00004373,-0.00007488,0.00015659,0.00013667,0
 .00063636,-0.00026070,0.00120050,0.00001857,0.00011765,0.00072165,-0.0
 0052542,0.00024454,-0.00084978,0.00045505,0.00006215,-0.00007108,-0.00
 005674,-0.00023450,-0.00004415,-0.00053337,-0.00001174,-0.00011226,-0.
 00040767,-0.00032024,-0.00012157,-0.00036528,-0.00041111,0.00004061,-0
 .00049230,0.00005536,-0.00000927,-0.00003889,-0.00022732,0.00003418,0.
 00009092,0.00041231,-0.00002424,0.00001755,-0.00013630,-0.00052021,-0.
 00023395,0.00002731,-0.00004590,0.00004041,-0.00003102,0.00006538,-0.0
 0005401,-0.00020885,-0.00002821,0.00010334,-0.00035981,0.00047242,-0.0
 0029371,0.00014129,0.00006913,-0.00005944,0.00013548,-0.00003682,-0.00
 009291,0.00003026,-0.00028478,-0.00004658,-0.00006608,0.00009631,0.000
 02123,0.00004460,0.00013222,0.00011376,0.00004164,0.00000104,-0.000012
 70,-0.00003645,-0.00000066,-0.00000132,-0.00001293,0.00000098,0.000010
 59,0.00005596,0.00001205,-0.00006716,-0.00006465,-0.00000657,0.0000484
 1,-0.00002448,-0.00000484,0.00003697,0.03654918,0.04885569,-0.01815750
 ,0.00918782,0.01647581,-0.00078708,-0.04464911,-0.06593496,0.02059457,
 -0.00066433,-0.00003756,-0.00031101,-0.00036663,-0.00023839,-0.0003165
 8,-0.00067741,-0.00089197,0.00027623,0.00003374,-0.00011076,0.00006880
 ,0.00040700,0.00014681,-0.00016908,0.00318727,0.00437662,0.00364146,0.
 00050619,0.00017637,0.00010099,0.00004876,0.00029614,0.00009176,-0.000
 02366,0.00055967,-0.00015263,-0.00016100,-0.00004015,0.00005909,-0.011
 26408,-0.00985150,0.00165766,-0.00577058,-0.00727844,-0.00626997,-0.00
 015253,-0.00011265,-0.00009304,-0.00005030,-0.00063941,0.00018321,0.00
 003988,-0.00015022,0.00002846,0.00005529,0.00007132,-0.00005732,-0.000
 60692,-0.00024071,-0.00018728,0.00038235,0.00052330,0.00016427,0.00013
 280,-0.00005219,0.00004735,0.00018921,-0.00009448,0.00028166,0.0008819
 5,0.00005087,-0.00036163,-0.00053974,-0.00034218,-0.00054239,-0.000718
 76,-0.00016168,0.00009473,-0.00062067,0.00022057,0.00030687,-0.0000903
 9,-0.00010697,-0.00134361,0.00008728,0.00003507,0.00023860,0.00017684,
 0.00007703,0.00173077,-0.00026664,0.00001740,-0.00008034,0.00022930,-0
 .00000821,0.00009369,0.00010743,-0.00001541,0.00002624,-0.00037152,-0.
 00000457,0.00016921,0.00033479,0.00000813,-0.00017285,0.00016609,-0.00
 000404,-0.00009793,0.00032977,-0.00037320,0.00011515,-0.00014996,0.000
 20872,-0.00006988,-0.00026351,0.00023622,-0.00007042,0.38187226,0.0001
 6678,-0.00107900,0.00022211,-0.00028799,-0.00014575,-0.00026987,-0.000
 52784,-0.00027416,0.00003996,-0.00003891,0.00001351,0.00003951,0.00025
 550,0.00005465,-0.00008806,0.00388097,0.00074462,0.00033918,0.00030496
 ,0.00011781,0.00008081,0.00009812,0.00010764,0.00014808,0.00001621,0.0
 0017194,-0.00003663,-0.00007379,-0.00005662,0.00004645,-0.00872809,0.0
 0025287,0.00124632,-0.00807737,-0.00029821,-0.00363863,-0.00007095,-0.
 00006571,-0.00004124,-0.00012335,-0.00018031,0.00007003,0.00004972,-0.
 00006585,0.00001801,0.00005518,0.00003066,-0.00003653,-0.00039579,-0.0
 0016361,-0.00013310,0.00032054,0.00034034,-0.00000671,-0.00006793,-0.0
 0000204,0.00005777,0.00011745,-0.00019603,0.00013488,0.00048336,-0.000
 18957,-0.00027845,-0.00039487,-0.00008129,-0.00026198,-0.00035314,0.00
 007518,0.00006332,-0.00037211,0.00033415,0.00027875,-0.00026113,0.0003
 2440,-0.00086936,0.00007968,-0.00006364,0.00013201,0.00029477,-0.00029
 848,0.00117974,-0.00013189,0.00004927,-0.00003997,0.00011934,-0.000022
 71,0.00004733,0.00005002,-0.00002486,0.00000956,-0.00018792,0.00004160
 ,0.00010418,0.00017688,-0.00002767,-0.00010443,0.00008859,-0.00001536,
 -0.00005399,-0.00009997,-0.00013625,-0.00001581,0.00006580,0.00005348,
 -0.00001634,0.00006670,0.00006964,0.00002578,0.19795979,0.14141023,-0.
 00047538,0.00016834,0.00165074,-0.00026352,-0.00027482,-0.00027676,0.0
 0015003,0.00015408,-0.00004903,-0.00012636,-0.00005617,0.00020141,-0.0
 0013444,-0.00001826,0.00007840,0.00291035,-0.00054674,-0.01489092,0.00
 000931,0.00010900,0.00011187,0.00009204,0.00014168,0.00006850,0.000001
 23,0.00008457,-0.00007049,-0.00004343,-0.00003662,0.00002111,0.0071432
 9,0.00487800,0.00826597,-0.01001981,-0.00600389,0.00527852,0.00002783,
 0.00000269,0.00001112,-0.00002023,-0.00007670,0.00007778,-0.00000554,-
 0.00001577,0.00001350,0.00001453,0.00001536,-0.00001198,0.00009918,-0.
 00005718,0.00000525,-0.00008763,-0.00003457,-0.00003133,-0.00002665,0.
 00001852,-0.00001778,0.00009528,-0.00003211,0.00006090,0.00012187,-0.0
 0006104,-0.00008549,-0.00009576,0.00005804,0.00013348,-0.00010129,-0.0
 0001241,0.00005066,-0.00008139,0.00005120,0.00009363,-0.00039725,-0.00
 021000,-0.00021205,0.00011156,0.00004468,-0.00004356,0.00038781,0.0001
 5399,0.00038622,-0.00002996,-0.00000177,0.00001929,0.00002416,0.000001
 40,-0.00000289,0.00000754,-0.00000174,-0.00001569,-0.00003140,-0.00000
 004,0.00006721,0.00004112,0.00000156,-0.00004655,0.00001663,-0.0000013
 5,-0.00003199,0.00003593,-0.00003196,0.00010686,-0.00002076,0.00001855
 ,-0.00003988,-0.00001975,0.00002326,-0.00007106,-0.03826724,0.05970749
 ,0.53988393,0.00027162,-0.00016423,0.00162271,0.00013197,0.00004503,0.
 00007417,0.00059895,0.00088400,-0.00023322,-0.00010365,0.00004649,0.00
 006344,-0.00041403,-0.00013834,0.00020005,-0.00133916,-0.00528401,-0.0
 1629022,-0.00038777,-0.00005158,-0.00000741,0.00006121,-0.00013479,0.0
 0001678,0.00001449,-0.00039673,0.00010556,0.00010986,0.00001091,-0.000
 03836,0.00352461,0.00760649,0.00722599,-0.00503875,-0.00087743,0.00631
 407,0.00014761,0.00008076,0.00008520,0.00003691,0.00046357,-0.00011982
 ,-0.00003864,0.00010946,-0.00001827,-0.00004274,-0.00004884,0.00004296
 ,0.00060167,0.00018634,0.00019491,-0.00039952,-0.00046642,-0.00014514,
 -0.00010255,0.00005571,-0.00005474,-0.00008074,0.00005912,-0.00016056,
 -0.00066981,-0.00003676,0.00028600,0.00040746,0.00034140,0.00048867,0.
 00052410,0.00010247,-0.00007254,0.00047661,-0.00019741,-0.00025063,-0.
 00003003,-0.00001316,0.00073864,-0.00000328,0.00000498,-0.00017936,-0.
 00006314,-0.00002062,-0.00086007,0.00019522,-0.00001903,0.00005861,-0.
 00016946,0.00000881,-0.00006873,-0.00007821,0.00001403,-0.00001856,0.0
 0027610,-0.00000257,-0.00012940,-0.00025139,-0.00000086,0.00013108,-0.
 00012341,0.00000405,0.00007344,-0.00023641,0.00027219,-0.00008837,0.00
 010629,-0.00015245,0.00005177,0.00019434,-0.00017161,0.00005309,-0.244
 52825,-0.09630568,0.21316245,0.23532865,-0.00045603,0.00109746,0.00063
 695,0.00013484,-0.00000452,0.00011973,0.00053218,0.00040759,-0.0000794
 2,-0.00003660,-0.00000446,0.00004628,-0.00028890,-0.00007277,0.0001242
 3,-0.00340597,-0.00217233,-0.00948494,-0.00021521,-0.00005618,0.000032
 24,-0.00002414,-0.00003537,-0.00005371,-0.00000637,-0.00016059,0.00002
 745,0.00005212,0.00002791,-0.00003074,0.00646806,-0.00190305,0.0040514
 3,-0.00094044,-0.00221455,0.00410899,0.00007907,0.00005711,0.00004463,
 0.00006926,0.00017999,-0.00004857,-0.00003624,0.00005888,-0.00000945,-
 0.00003545,-0.00002312,0.00002737,0.00026703,0.00012997,0.00010270,-0.
 00023269,-0.00023967,-0.00001363,0.00002266,0.00001391,-0.00003872,-0.
 00005642,0.00008297,-0.00007462,-0.00036168,0.00010592,0.00020301,0.00
 027714,0.00008109,0.00021933,0.00026684,-0.00003550,-0.00004490,0.0002
 7191,-0.00022136,-0.00020230,0.00008715,-0.00012232,0.00050680,-0.0000
 2577,0.00003454,-0.00009511,-0.00012899,0.00007164,-0.00063976,0.00010
 062,-0.00002887,0.00002789,-0.00008999,0.00001330,-0.00003489,-0.00003
 825,0.00001559,-0.00000600,0.00014196,-0.00002465,-0.00008054,-0.00013
 325,0.00001634,0.00007933,-0.00006688,0.00000941,0.00004163,0.00000347
 ,0.00012561,0.00001059,-0.00001477,-0.00005819,0.00001238,0.00000620,-
 0.00007195,-0.00001987,-0.10344852,-0.05887648,0.08818021,0.09359137,0
 .05510826,0.00043849,-0.00023387,-0.00092307,0.00012049,0.00014322,0.0
 0008424,-0.00017049,-0.00003095,0.00004915,0.00004059,0.00002116,-0.00
 006085,0.00000676,-0.00001065,0.00000208,-0.00670659,-0.00341823,0.006
 69798,-0.00002166,-0.00008636,-0.00009510,-0.00005512,-0.00008141,-0.0
 0005012,0.00000408,-0.00004140,0.00003524,0.00003113,0.00001011,-0.000
 01118,0.00233416,0.00100629,-0.00972761,0.00393953,0.00264991,-0.00094
 882,-0.00001405,-0.00000167,-0.00000191,0.00001761,0.00006009,-0.00004
 225,0.00000174,0.00001233,-0.00000796,-0.00000872,-0.00000781,0.000006
 64,0.00001994,0.00003941,0.00002385,0.00003499,-0.00003186,-0.00000598
 ,-0.00000986,-0.00000311,0.00000883,-0.00006043,0.00001607,-0.00006865
 ,-0.00009869,0.00002794,0.00005588,0.00005698,0.00000704,-0.00002046,0
 .00008082,0.00001641,-0.00002930,0.00006546,-0.00003024,-0.00005813,0.
 00016709,0.00008290,0.00024561,-0.00005663,-0.00002617,0.00000523,-0.0
 0014835,-0.00003586,-0.00037761,0.00002421,0.00000009,-0.00000629,-0.0
 0002060,-0.00000030,-0.00000254,-0.00000734,0.00000141,0.00000720,0.00
 002833,0.00000091,-0.00004198,-0.00003314,-0.00000174,0.00003101,-0.00
 001400,0.00000086,0.00002059,-0.00001404,0.00002543,-0.00005216,0.0000
 0945,-0.00001334,0.00002220,0.00000535,-0.00001658,0.00003261,0.166686
 87,0.06211692,-0.21729582,-0.19922811,-0.07248632,0.26652126,0.0008690
 3,-0.00007656,-0.00126293,0.00050435,0.00032959,0.00033364,0.00034037,
 0.00044345,-0.00010631,0.00009914,0.00011318,-0.00019002,-0.00012118,-
 0.00006075,0.00002920,-0.00712353,-0.00369113,0.01168398,-0.00032949,-
 0.00019687,-0.00016156,-0.00009648,-0.00026504,-0.00015201,0.00001763,
 -0.00039023,0.00011749,0.00011340,0.00006708,-0.00005279,-0.00149580,-
 0.00053715,-0.00571554,0.00468431,0.00573341,-0.00280348,0.00007035,0.
 00007515,0.00004819,0.00003756,0.00041443,-0.00013968,-0.00002190,0.00
 009894,-0.00002634,-0.00003909,-0.00005112,0.00003967,0.00036570,0.000
 18491,0.00015059,-0.00020344,-0.00033813,-0.00009171,-0.00004155,0.000
 02145,-0.00002789,-0.00019538,0.00011555,-0.00025506,-0.00059975,0.000
 03100,0.00026063,0.00039535,0.00016409,0.00030784,0.00048738,0.0000861
 2,-0.00007472,0.00042171,-0.00018551,-0.00022909,0.00020705,0.00011448
 ,0.00126140,-0.00011988,-0.00003425,-0.00015497,-0.00026839,-0.0000533
 5,-0.00178312,0.00017510,-0.00001674,0.00005085,-0.00015186,0.00000767
 ,-0.00006134,-0.00006929,0.00001266,-0.00001476,0.00024174,-0.00000339
 ,-0.00012004,-0.00022052,-0.00000087,0.00012016,-0.00010940,0.00000501
 ,0.00006832,-0.00021500,0.00024534,-0.00007965,0.00009553,-0.00013601,
 0.00004933,0.00017354,-0.00015811,0.00005031,-0.12188131,-0.08815165,-
 0.17420436,0.01109316,0.00767063,0.03255376,0.11291077,-0.00008075,0.0
 0083021,-0.00101387,0.00031859,0.00018912,0.00022938,0.00033188,0.0001
 4492,0.00003817,0.00010129,0.00002490,-0.00009933,-0.00007359,-0.00001
 945,0.00001017,-0.00511689,-0.00024099,0.00819673,-0.00023491,-0.00012
 906,-0.00010710,-0.00009466,-0.00010696,-0.00013648,-0.00001273,-0.000
 15531,0.00004746,0.00005956,0.00004951,-0.00003600,-0.00034956,-0.0028
 2590,-0.00343926,0.00657225,-0.00225131,-0.00239679,0.00003451,0.00004
 373,0.00002184,0.00007099,0.00015018,-0.00006718,-0.00002561,0.0000415
 1,-0.00001730,-0.00003588,-0.00002575,0.00002534,0.00026565,0.00010550
 ,0.00006070,-0.00019430,-0.00021761,0.00003370,0.00005967,-0.00001196,
 -0.00003535,-0.00011851,0.00018625,-0.00014620,-0.00033421,0.00010565,
 0.00017191,0.00030317,0.00002025,0.00016482,0.00025139,-0.00002557,-0.
 00004472,0.00025201,-0.00019820,-0.00017285,0.00025585,-0.00024683,0.0
 0078930,-0.00007758,0.00003232,-0.00009376,-0.00028422,0.00027722,-0.0
 0115684,0.00009170,-0.00002752,0.00002867,-0.00008244,0.00001284,-0.00
 003324,-0.00003524,0.00001423,-0.00000772,0.00012963,-0.00001997,-0.00
 006867,-0.00012098,0.00001290,0.00006915,-0.00006029,0.00000822,0.0000
 3723,0.00001906,0.00010768,-0.00002628,-0.00001945,-0.00004633,0.00002
 266,-0.00001263,-0.00006349,0.00001119,-0.08076082,-0.08192838,-0.1463
 3955,0.00059530,0.00868842,0.01031934,0.07841268,0.07749499,0.00025753
 ,-0.00015138,-0.00115562,0.00021172,0.00021115,0.00023565,-0.00004215,
 -0.00009473,-0.00000696,0.00009588,0.00003493,-0.00015273,0.00010335,0
 .00001943,-0.00005588,0.00273019,0.00330852,0.00969667,0.00000626,-0.0
 0004376,-0.00002616,-0.00003774,-0.00005409,-0.00001213,-0.00001136,-0
 .00006241,0.00003268,0.00002202,0.00003271,-0.00001270,-0.00419047,-0.
 00280874,-0.00270148,0.00091526,-0.00017315,-0.01007103,-0.00001021,-0
 .00000077,-0.00000469,0.00000455,0.00004245,-0.00003731,0.00000131,0.0
 0000883,-0.00000533,-0.00000716,-0.00000854,0.00000675,-0.00007501,0.0
 0003010,-0.00000235,0.00003506,0.00003588,0.00002374,0.00003515,-0.000
 01275,0.00000330,-0.00003735,0.00002099,-0.00000434,-0.00005926,0.0000
 3939,0.00004378,0.00006560,-0.00004126,-0.00008652,0.00004827,-0.00000
 172,-0.00002429,0.00004126,-0.00003673,-0.00004883,0.00031331,0.000175
 61,-0.00006634,-0.00004855,-0.00001489,0.00005470,-0.00041862,-0.00023
 158,0.00005411,0.00001541,-0.00000063,-0.00000787,-0.00001242,-0.00000
 004,0.00000089,-0.00000416,0.00000148,0.00000638,0.00001672,-0.0000019
 1,-0.00002941,-0.00002006,0.00000084,0.00002112,-0.00000886,0.00000112
 ,0.00001419,-0.00003559,0.00001958,-0.00005493,0.00001794,-0.00001273,
 0.00001867,0.00002612,-0.00001522,0.00003983,-0.12749985,-0.12021708,-
 0.32339310,-0.01302612,-0.01515966,-0.04402182,0.14058201,0.13516072,0
 .37172934\\-0.00000149,0.00000163,0.00000226,0.00000161,-0.00000076,0.
 00000136,0.00000257,0.00000566,0.00000614,-0.00000104,0.00000027,0.000
 00173,-0.00000327,0.00000292,0.00000033,-0.00000110,0.00000163,0.00000
 199,-0.00000382,0.00000407,-0.00000210,0.00000209,0.00000054,0.0000029
 8,0.00000731,-0.00000355,0.00000277,-0.00000196,0.00000183,-0.00000020
 ,-0.00000315,0.00000369,0.00000170,-0.00000068,0.00000132,0.00000294,0
 .00000388,-0.00000160,0.00000217,0.00000109,0.00000216,0.00000100,-0.0
 0000110,-0.00000120,-0.00000144,0.00000218,-0.00000090,0.00000191,-0.0
 0000211,-0.00000166,-0.00000489,0.00000105,0.00000367,-0.00000316,-0.0
 0000149,-0.00000053,-0.00000182,-0.00000062,-0.00000027,-0.00000063,0.
 00000048,-0.00000059,-0.00000464,0.00000327,-0.00000727,0.00000048,-0.
 00000088,-0.00000072,-0.00000243,-0.00000438,-0.00000301,-0.00000558,0
 .00000104,-0.00000047,0.00000275,0.00000316,-0.00000136,0.00000164,0.0
 0000251,0.00000017,0.00000249,0.00000231,-0.00000586,-0.00000691,-0.00
 000047,-0.00000290,-0.00000556,-0.00000094,-0.00000411,-0.00000742,-0.
 00000377,-0.00000326,-0.00000832,-0.00000038,-0.00000303,-0.00000404,-
 0.00000130,-0.00000038,-0.00000477,0.00000256,0.00000006,0.00000607,0.
 00000291,-0.00000024,0.00000499,0.00000187,0.00000145,0.00000553,-0.00
 000298,0.00000498,0.00000340,-0.00000340,0.00000464,0.00000353,-0.0000
 0154,0.00000300,0.00000374\\\@


 I am not a vegetarian because I love animals;
 I am a vegetarian because I hate plants.
                               -- A. Whitney Brown
 Job cpu time:       0 days  0 hours  1 minutes 49.6 seconds.
 File lengths (MBytes):  RWF=    683 Int=      0 D2E=      0 Chk=     14 Scr=      1
 Normal termination of Gaussian 09 at Wed Feb  6 07:47:25 2019.
