 Entering Gaussian System, Link 0=g09
 Initial command:
 /global/apps/Gaussian/09.d01/l1.exe "/global/work/gvi022/1443323/Gau-49996.inp" -scrdir="/global/work/gvi022/1443323/"
 Entering Link 1 = /global/apps/Gaussian/09.d01/l1.exe PID=     49997.
  
 Copyright (c) 1988,1990,1992,1993,1995,1998,2003,2009,2013,
            Gaussian, Inc.  All Rights Reserved.
  
 This is part of the Gaussian(R) 09 program.  It is based on
 the Gaussian(R) 03 system (copyright 2003, Gaussian, Inc.),
 the Gaussian(R) 98 system (copyright 1998, Gaussian, Inc.),
 the Gaussian(R) 94 system (copyright 1995, Gaussian, Inc.),
 the Gaussian 92(TM) system (copyright 1992, Gaussian, Inc.),
 the Gaussian 90(TM) system (copyright 1990, Gaussian, Inc.),
 the Gaussian 88(TM) system (copyright 1988, Gaussian, Inc.),
 the Gaussian 86(TM) system (copyright 1986, Carnegie Mellon
 University), and the Gaussian 82(TM) system (copyright 1983,
 Carnegie Mellon University). Gaussian is a federally registered
 trademark of Gaussian, Inc.
  
 This software contains proprietary and confidential information,
 including trade secrets, belonging to Gaussian, Inc.
  
 This software is provided under written license and may be
 used, copied, transmitted, or stored only in accord with that
 written license.
  
 The following legend is applicable only to US Government
 contracts under FAR:
  
                    RESTRICTED RIGHTS LEGEND
  
 Use, reproduction and disclosure by the US Government is
 subject to restrictions as set forth in subparagraphs (a)
 and (c) of the Commercial Computer Software - Restricted
 Rights clause in FAR 52.227-19.
  
 Gaussian, Inc.
 340 Quinnipiac St., Bldg. 40, Wallingford CT 06492
  
  
 ---------------------------------------------------------------
 Warning -- This program may not be used in any manner that
 competes with the business of Gaussian, Inc. or will provide
 assistance to any competitor of Gaussian, Inc.  The licensee
 of this program is prohibited from giving any competitor of
 Gaussian, Inc. access to this program.  By using this program,
 the user acknowledges that Gaussian, Inc. is engaged in the
 business of creating and licensing software in the field of
 computational chemistry and represents and warrants to the
 licensee that it is not a competitor of Gaussian, Inc. and that
 it will not use this program in any manner prohibited above.
 ---------------------------------------------------------------
  

 Cite this work as:
 Gaussian 09, Revision D.01,
 M. J. Frisch, G. W. Trucks, H. B. Schlegel, G. E. Scuseria, 
 M. A. Robb, J. R. Cheeseman, G. Scalmani, V. Barone, B. Mennucci, 
 G. A. Petersson, H. Nakatsuji, M. Caricato, X. Li, H. P. Hratchian, 
 A. F. Izmaylov, J. Bloino, G. Zheng, J. L. Sonnenberg, M. Hada, 
 M. Ehara, K. Toyota, R. Fukuda, J. Hasegawa, M. Ishida, T. Nakajima, 
 Y. Honda, O. Kitao, H. Nakai, T. Vreven, J. A. Montgomery, Jr., 
 J. E. Peralta, F. Ogliaro, M. Bearpark, J. J. Heyd, E. Brothers, 
 K. N. Kudin, V. N. Staroverov, T. Keith, R. Kobayashi, J. Normand, 
 K. Raghavachari, A. Rendell, J. C. Burant, S. S. Iyengar, J. Tomasi, 
 M. Cossi, N. Rega, J. M. Millam, M. Klene, J. E. Knox, J. B. Cross, 
 V. Bakken, C. Adamo, J. Jaramillo, R. Gomperts, R. E. Stratmann, 
 O. Yazyev, A. J. Austin, R. Cammi, C. Pomelli, J. W. Ochterski, 
 R. L. Martin, K. Morokuma, V. G. Zakrzewski, G. A. Voth, 
 P. Salvador, J. J. Dannenberg, S. Dapprich, A. D. Daniels, 
 O. Farkas, J. B. Foresman, J. V. Ortiz, J. Cioslowski, 
 and D. J. Fox, Gaussian, Inc., Wallingford CT, 2013.
 
 ******************************************
 Gaussian 09:  EM64L-G09RevD.01 24-Apr-2013
                 6-Feb-2019 
 ******************************************
 %LindaWorkers=cib46-2,cib46-6,cib46-8,cib47-4
 %NProcShared=20
 Will use up to   20 processors via shared memory.
 %chk=ChorA_PS_big.chk
 SetLPE:  input flags=""
 SetLPE:    new flags=" -nodelist 'cib46-2.ibnet cib46-6.ibnet cib46-8.ibnet cib47-4.ibnet'"
 Will use up to    4 processors via Linda.
 ------------------------------------------------------------------
 #p rb3lyp/6-311+g(2d,2p) geom=connectivity empiricaldispersion=gd3
 ------------------------------------------------------------------
 1/38=1,57=2/1;
 2/12=2,17=6,18=5,40=1/2;
 3/5=4,6=6,7=212,11=2,16=1,25=1,30=1,74=-5,116=1,124=31/1,2,3;
 4//1;
 5/5=2,38=5/2;
 6/7=2,8=2,9=2,10=2,28=1/1;
 99/5=1,9=1/99;
 Leave Link    1 at Wed Feb  6 11:18:54 2019, MaxMem=           0 cpu:         1.3
 (Enter /global/apps/Gaussian/09.d01/l101.exe)
 -------------------
 Title Card Required
 -------------------
 Symbolic Z-matrix:
 Charge = -2 Multiplicity = 1
 C                    -1.09064  -0.21448  -0.32619 
 C                    -0.48214   0.63763  -1.40819 
 C                    -1.05405   0.49483   1.00655 
 C                     0.26936   1.71561  -1.17859 
 H                    -0.68387   0.3065   -2.42142 
 C                    -2.59237  -0.60408  -0.66822 
 C                    -0.30642   1.57827   1.2365 
 H                    -1.62742   0.03844   1.8061 
 C                     0.5982    2.19252   0.20263 
 H                     0.71634   2.27885  -1.99441 
 O                    -3.03155  -0.25297  -1.78635 
 O                    -3.19561  -1.25912   0.2325 
 H                    -0.28617   2.02852   2.22867 
 O                     0.50028   3.65673   0.19932 
 H                     1.64026   1.92198   0.43303 
 H                     0.79626   3.94415   1.07407 
 C                    -0.31027  -1.58553  -0.24302 
 C                     0.95589  -1.49171   0.58883 
 H                    -0.06056  -1.90957  -1.25673 
 H                    -0.96613  -2.32019   0.22656 
 C                     2.25114  -1.02622  -0.11489 
 O                     0.9504   -1.80392   1.77502 
 O                     2.87466  -0.05484   0.393 
 O                     2.53706  -1.70762  -1.13458 
 O                    -2.01148  -2.22874   2.64639 
 H                    -1.065    -2.14088   2.44773 
 H                    -2.45287  -1.93317   1.82167 
 O                     5.71378  -0.65712   0.70096 
 H                     4.77592  -0.50188   0.91444 
 H                     5.64889  -0.65349  -0.27151 
 O                     4.66282  -0.16333  -1.93911 
 H                     3.99538  -0.88637  -1.84324 
 H                     4.27184   0.43749  -1.28239 
 O                    -2.24119   4.06328   0.88198 
 H                    -1.35943   4.04893   0.46568 
 H                    -2.46011   3.12099   0.87137 
 O                    -5.56004  -1.5065   -1.38885 
 H                    -4.87289  -0.98957  -1.85328 
 H                    -5.03591  -1.65856  -0.58105 
 
 NAtoms=     39 NQM=       39 NQMF=       0 NMMI=      0 NMMIF=      0
                NMic=       0 NMicF=      0.
                    Isotopes and Nuclear Properties:
 (Nuclear quadrupole moments (NQMom) in fm**2, nuclear magnetic moments (NMagM)
  in nuclear magnetons)

  Atom         1           2           3           4           5           6           7           8           9          10
 IAtWgt=          12          12          12          12           1          12          12           1          12           1
 AtmWgt=  12.0000000  12.0000000  12.0000000  12.0000000   1.0078250  12.0000000  12.0000000   1.0078250  12.0000000   1.0078250
 NucSpn=           0           0           0           0           1           0           0           1           0           1
 AtZEff=   0.0000000   0.0000000   0.0000000   0.0000000   0.0000000   0.0000000   0.0000000   0.0000000   0.0000000   0.0000000
 NQMom=    0.0000000   0.0000000   0.0000000   0.0000000   0.0000000   0.0000000   0.0000000   0.0000000   0.0000000   0.0000000
 NMagM=    0.0000000   0.0000000   0.0000000   0.0000000   2.7928460   0.0000000   0.0000000   2.7928460   0.0000000   2.7928460
 AtZNuc=   6.0000000   6.0000000   6.0000000   6.0000000   1.0000000   6.0000000   6.0000000   1.0000000   6.0000000   1.0000000

  Atom        11          12          13          14          15          16          17          18          19          20
 IAtWgt=          16          16           1          16           1           1          12          12           1           1
 AtmWgt=  15.9949146  15.9949146   1.0078250  15.9949146   1.0078250   1.0078250  12.0000000  12.0000000   1.0078250   1.0078250
 NucSpn=           0           0           1           0           1           1           0           0           1           1
 AtZEff=   0.0000000   0.0000000   0.0000000   0.0000000   0.0000000   0.0000000   0.0000000   0.0000000   0.0000000   0.0000000
 NQMom=    0.0000000   0.0000000   0.0000000   0.0000000   0.0000000   0.0000000   0.0000000   0.0000000   0.0000000   0.0000000
 NMagM=    0.0000000   0.0000000   2.7928460   0.0000000   2.7928460   2.7928460   0.0000000   0.0000000   2.7928460   2.7928460
 AtZNuc=   8.0000000   8.0000000   1.0000000   8.0000000   1.0000000   1.0000000   6.0000000   6.0000000   1.0000000   1.0000000

  Atom        21          22          23          24          25          26          27          28          29          30
 IAtWgt=          12          16          16          16          16           1           1          16           1           1
 AtmWgt=  12.0000000  15.9949146  15.9949146  15.9949146  15.9949146   1.0078250   1.0078250  15.9949146   1.0078250   1.0078250
 NucSpn=           0           0           0           0           0           1           1           0           1           1
 AtZEff=   0.0000000   0.0000000   0.0000000   0.0000000   0.0000000   0.0000000   0.0000000   0.0000000   0.0000000   0.0000000
 NQMom=    0.0000000   0.0000000   0.0000000   0.0000000   0.0000000   0.0000000   0.0000000   0.0000000   0.0000000   0.0000000
 NMagM=    0.0000000   0.0000000   0.0000000   0.0000000   0.0000000   2.7928460   2.7928460   0.0000000   2.7928460   2.7928460
 AtZNuc=   6.0000000   8.0000000   8.0000000   8.0000000   8.0000000   1.0000000   1.0000000   8.0000000   1.0000000   1.0000000

  Atom        31          32          33          34          35          36          37          38          39
 IAtWgt=          16           1           1          16           1           1          16           1           1
 AtmWgt=  15.9949146   1.0078250   1.0078250  15.9949146   1.0078250   1.0078250  15.9949146   1.0078250   1.0078250
 NucSpn=           0           1           1           0           1           1           0           1           1
 AtZEff=   0.0000000   0.0000000   0.0000000   0.0000000   0.0000000   0.0000000   0.0000000   0.0000000   0.0000000
 NQMom=    0.0000000   0.0000000   0.0000000   0.0000000   0.0000000   0.0000000   0.0000000   0.0000000   0.0000000
 NMagM=    0.0000000   2.7928460   2.7928460   0.0000000   2.7928460   2.7928460   0.0000000   2.7928460   2.7928460
 AtZNuc=   8.0000000   1.0000000   1.0000000   8.0000000   1.0000000   1.0000000   8.0000000   1.0000000   1.0000000
 Leave Link  101 at Wed Feb  6 11:18:54 2019, MaxMem=    33554432 cpu:         4.0
 (Enter /global/apps/Gaussian/09.d01/l202.exe)
                          Input orientation:                          
 ---------------------------------------------------------------------
 Center     Atomic      Atomic             Coordinates (Angstroms)
 Number     Number       Type             X           Y           Z
 ---------------------------------------------------------------------
      1          6           0       -1.090640   -0.214478   -0.326192
      2          6           0       -0.482136    0.637630   -1.408189
      3          6           0       -1.054054    0.494825    1.006546
      4          6           0        0.269357    1.715608   -1.178591
      5          1           0       -0.683873    0.306497   -2.421416
      6          6           0       -2.592367   -0.604079   -0.668215
      7          6           0       -0.306418    1.578271    1.236499
      8          1           0       -1.627420    0.038436    1.806101
      9          6           0        0.598202    2.192516    0.202632
     10          1           0        0.716342    2.278853   -1.994412
     11          8           0       -3.031550   -0.252970   -1.786347
     12          8           0       -3.195605   -1.259118    0.232499
     13          1           0       -0.286173    2.028524    2.228665
     14          8           0        0.500283    3.656725    0.199323
     15          1           0        1.640255    1.921979    0.433029
     16          1           0        0.796259    3.944146    1.074067
     17          6           0       -0.310267   -1.585531   -0.243020
     18          6           0        0.955888   -1.491706    0.588832
     19          1           0       -0.060556   -1.909570   -1.256727
     20          1           0       -0.966129   -2.320187    0.226563
     21          6           0        2.251138   -1.026225   -0.114891
     22          8           0        0.950402   -1.803922    1.775023
     23          8           0        2.874661   -0.054835    0.392995
     24          8           0        2.537063   -1.707623   -1.134579
     25          8           0       -2.011481   -2.228736    2.646387
     26          1           0       -1.065003   -2.140885    2.447732
     27          1           0       -2.452870   -1.933169    1.821666
     28          8           0        5.713784   -0.657120    0.700961
     29          1           0        4.775916   -0.501884    0.914436
     30          1           0        5.648892   -0.653487   -0.271514
     31          8           0        4.662822   -0.163328   -1.939107
     32          1           0        3.995379   -0.886374   -1.843235
     33          1           0        4.271844    0.437491   -1.282388
     34          8           0       -2.241187    4.063283    0.881979
     35          1           0       -1.359430    4.048929    0.465679
     36          1           0       -2.460114    3.120987    0.871373
     37          8           0       -5.560035   -1.506500   -1.388853
     38          1           0       -4.872885   -0.989566   -1.853276
     39          1           0       -5.035914   -1.658559   -0.581046
 ---------------------------------------------------------------------
                    Distance matrix (angstroms):
                    1          2          3          4          5
     1  C    0.000000
     2  C    1.505683   0.000000
     3  C    1.510179   2.485645   0.000000
     4  C    2.510261   1.333977   2.831352   0.000000
     5  H    2.197007   1.084885   3.453031   2.106859   0.000000
     6  C    1.588695   2.557827   2.525633   3.718991   2.746855
     7  C    2.504188   2.812482   1.336298   2.486572   3.891044
     8  H    2.213317   3.464444   1.084586   3.913956   4.339820
     9  C    2.987551   2.485869   2.501676   1.497784   3.476552
    10  H    3.502120   2.115093   3.914436   1.087476   2.456242
    11  O    2.429129   2.726845   3.502847   3.891099   2.495577
    12  O    2.415427   3.694919   2.874318   4.779763   3.975325
    13  H    3.493640   3.898679   2.106050   3.466399   4.974615
    14  O    4.218224   3.558676   3.614579   2.391633   4.415261
    15  H    3.549458   3.089366   3.102417   2.125857   4.019852
    16  H    4.776533   4.327694   3.914848   3.212238   5.257536
    17  C    1.579774   2.515870   2.538211   3.479767   2.909426
    18  C    2.580089   3.254240   2.856686   3.725852   3.870910
    19  H    2.190960   2.586290   3.448269   3.640998   2.579918
    20  H    2.180608   3.413992   2.922396   4.448429   3.740445
    21  C    3.445441   3.451350   3.807297   3.546345   3.963647
    22  O    3.332760   4.259833   3.145257   4.644863   4.973412
    23  O    4.033154   3.871932   4.014147   3.520222   4.551333
    24  O    4.005396   3.832837   4.725602   4.106451   4.010867
    25  O    3.706941   5.195627   3.320170   5.948994   5.820015
    26  H    3.377330   4.788320   3.004015   5.459237   5.462924
    27  H    3.069668   4.574359   2.918263   5.452122   5.113629
    28  O    6.895735   6.671905   6.871971   6.229313   7.183858
    29  H    6.003186   5.860050   5.915274   5.441241   6.449084
    30  H    6.754037   6.367772   6.919649   5.947672   6.756298
    31  O    5.975486   5.233928   6.464728   4.838525   5.388924
    32  H    5.349809   4.749736   5.960347   4.592962   4.863397
    33  H    5.485947   4.759854   5.797214   4.202887   5.086617
    34  O    4.591587   4.480427   3.762804   4.007538   5.239378
    35  H    4.344646   3.989735   3.607970   3.286481   4.774672
    36  H    3.799335   3.908435   2.981946   3.691538   4.681757
    37  O    4.772218   5.512053   5.481524   6.663933   5.303782
    38  H    4.151882   4.703674   4.996546   5.849429   4.421582
    39  H    4.208979   5.166579   4.797157   6.315692   5.117486
                    6          7          8          9         10
     6  C    0.000000
     7  C    3.690007   0.000000
     8  H    2.732433   2.107269   0.000000
     9  C    4.331172   1.504831   3.487774   0.000000
    10  H    4.584501   3.460584   4.995657   2.201911   0.000000
    11  O    1.251550   4.462890   3.868098   4.807446   4.527705
    12  O    1.266593   4.172073   2.572756   5.129097   5.725356
    13  H    4.543241   1.089739   2.436792   2.216714   4.347652
    14  O    5.335875   2.458957   4.494538   1.467483   2.599555
    15  H    5.050623   2.133831   4.013821   1.100976   2.621725
    16  H    5.933353   2.615272   4.654532   1.966427   3.492156
    17  C    2.520321   3.492654   2.927637   3.911210   4.365176
    18  C    3.867578   3.381959   3.239839   3.721637   4.576860
    19  H    2.908732   4.294375   3.953569   4.403499   4.323267
    20  H    2.527905   4.080829   2.914678   4.776211   5.377230
    21  C    4.893252   3.892396   4.457233   3.632260   4.100212
    22  O    4.467689   3.648127   3.168661   4.309057   5.561697
    23  O    5.596091   3.673935   4.719566   3.204542   3.975444
    24  O    5.267481   4.950201   5.388807   4.556139   4.466131
    25  O    3.736780   4.403218   2.448194   5.685935   7.021139
    26  H    3.795226   3.984301   2.340394   5.156073   6.514593
    27  H    2.825853   4.156908   2.137484   5.380668   6.507495
    28  O    8.418408   6.444114   7.456434   5.876899   6.392136
    29  H    7.537030   5.500990   6.487659   5.021927   5.716121
    30  H    8.250949   6.536097   7.598681   5.816702   5.991414
    31  O    7.378834   6.149064   7.323554   5.163156   4.641337
    32  H    6.697668   5.836497   6.766742   5.020552   4.560000
    33  H    6.969897   5.348519   6.670781   4.333710   4.066840
    34  O    4.930588   3.169274   4.174938   3.467479   4.494974
    35  H    4.945334   2.794128   4.237051   2.710680   3.673424
    36  H    4.032857   2.674266   3.327043   3.265359   4.360251
    37  O    3.184452   6.633911   5.297171   7.357950   7.354489
    38  H    2.598794   6.082197   4.998087   6.654712   6.476260
    39  H    2.662790   6.012376   4.494006   6.869366   7.112613
                   11         12         13         14         15
    11  O    0.000000
    12  O    2.261634   0.000000
    13  H    5.372395   4.822661   0.000000
    14  O    5.630492   6.150301   2.718047   0.000000
    15  H    5.610864   5.791816   2.635675   2.088899   0.000000
    16  H    6.360021   6.611896   2.484827   0.967155   2.283072
    17  C    3.400435   2.942421   4.378493   5.322960   4.069915
    18  C    4.803707   4.173244   4.077228   5.183207   3.485094
    19  H    3.442619   3.531206   5.263786   5.780853   4.519823
    20  H    3.548402   2.469102   4.835498   6.154233   4.983155
    21  C    5.594505   5.462777   4.611040   5.009416   3.060278
    22  O    5.562801   4.457080   4.052475   5.701237   4.019849
    23  O    6.298581   6.190653   4.207249   4.410313   2.330913
    24  O    5.792259   5.910460   5.765489   5.891010   4.054093
    25  O    4.959166   2.858175   4.612531   6.850966   5.955045
    26  H    5.035768   3.197536   4.247180   6.412312   5.280560
    27  H    4.021902   1.879216   4.533788   6.526869   5.791731
    28  O    9.101149   8.941984   6.748781   6.785388   4.828786
    29  H    8.265150   8.036392   5.809897   6.007200   3.992397
    30  H    8.820726   8.879524   6.976322   6.731106   4.816490
    31  O    7.696410   8.226269   6.831332   6.040896   4.371664
    32  H    7.055648   7.493855   6.588527   6.085022   4.314491
    33  H    7.353249   7.806162   5.969455   5.175288   3.474424
    34  O    5.135628   5.446163   3.126642   2.854289   4.455595
    35  H    5.135557   5.621501   2.888258   1.919193   3.677376
    36  H    4.332851   4.487140   2.785989   3.082631   4.294507
    37  O    2.850013   2.877587   7.307288   8.118414   8.180336
    38  H    1.984331   2.690053   6.841713   7.394060   7.491681
    39  H    2.728719   2.051377   6.636949   7.714318   7.643287
                   16         17         18         19         20
    16  H    0.000000
    17  C    5.791066   0.000000
    18  C    5.459800   1.517870   0.000000
    19  H    6.358673   1.093142   2.147989   0.000000
    20  H    6.562480   1.091047   2.124092   1.785726   0.000000
    21  C    5.313651   2.624888   1.545824   2.725439   3.484499
    22  O    5.792701   2.389452   1.226604   3.197609   2.517409
    23  O    4.558011   3.590447   2.405128   3.844102   4.462195
    24  O    6.312766   2.986147   2.348804   2.608319   3.807925
    25  O    6.961326   3.414164   3.685380   4.375188   2.637550
    26  H    6.509904   2.849244   2.821514   3.845184   2.230587
    27  H    6.757113   2.995752   3.651630   3.898747   2.214619
    28  O    6.744843   6.167839   4.831840   6.224482   6.900151
    29  H    5.969115   5.327594   3.959593   5.485161   6.062217
    30  H    6.818861   6.031674   4.844285   5.928422   6.839918
    31  O    6.395379   5.443435   4.679361   5.081860   6.405252
    32  H    6.486828   4.646299   3.939528   4.223924   5.563852
    33  H    5.470759   5.115530   4.268352   4.927377   6.108853
    34  O    3.045845   6.074798   6.416005   6.708516   6.542479
    35  H    2.242345   5.774958   6.006205   6.336992   6.385726
    36  H    3.364913   5.292922   5.746811   5.966003   5.679273
    37  O    8.728000   5.373941   6.809457   5.515813   4.937168
    38  H    8.065361   4.874996   6.339608   4.935665   4.621583
    39  H    8.254935   4.738284   6.107221   5.027299   4.201563
                   21         22         23         24         25
    21  C    0.000000
    22  O    2.422499   0.000000
    23  O    1.261082   2.944839   0.000000
    24  O    1.259293   3.315502   2.275777   0.000000
    25  O    5.219254   3.116487   5.803275   5.937720   0.000000
    26  H    4.336622   2.151264   4.908615   5.098583   0.971083
    27  H    5.167252   3.406045   5.826820   5.804282   0.980994
    28  O    3.576558   5.015832   2.918597   3.816323   8.119999
    29  H    2.776500   4.131643   2.021515   3.265690   7.214598
    30  H    3.421724   5.252392   2.914844   3.396993   8.347267
    31  O    3.144610   5.501670   2.940747   2.747902   8.356972
    32  H    2.459493   4.817216   2.635942   1.817506   7.618465
    33  H    2.754772   5.040205   2.236384   2.762757   7.875545
    34  O    6.861328   6.738536   6.585583   7.758965   6.538762
    35  H    6.255434   6.426941   5.896922   7.133118   6.677555
    36  H    6.353580   6.058294   6.226919   7.232641   5.654333
    37  O    7.928939   7.244609   8.742220   8.103586   5.421902
    38  H    7.333146   6.909298   8.120586   7.479269   5.474499
    39  H    7.329275   6.434918   8.130060   7.593338   4.459666
                   26         27         28         29         30
    26  H    0.000000
    27  H    1.536645   0.000000
    28  O    7.155747   8.341374   0.000000
    29  H    6.257288   7.424755   0.974303   0.000000
    30  H    7.394798   8.465077   0.974644   1.480388   0.000000
    31  O    7.480847   8.240681   2.884148   2.875781   1.998363
    32  H    6.752308   7.490474   3.078702   2.891681   2.293174
    33  H    7.003125   7.776693   2.685337   2.441833   2.026909
    34  O    6.505897   6.073323   9.251840   8.371472   9.264546
    35  H    6.506076   6.230554   8.498977   7.652042   8.471880
    36  H    5.667322   5.142723   9.006428   8.092415   9.017141
    37  O    5.943664   4.488202  11.497294  10.637024  11.296731
    38  H    5.858683   4.500229  10.895513  10.049747  10.645314
    39  H    5.017397   3.538439  10.872094   9.992316  10.736436
                   31         32         33         34         35
    31  O    0.000000
    32  H    0.988669   0.000000
    33  H    0.972176   1.464104   0.000000
    34  O    8.572520   8.415501   7.762115   0.000000
    35  H    7.732634   7.639521   6.914439   0.975196   0.000000
    36  H    8.331971   8.068546   7.560363   0.967452   1.495717
    37  O   10.325391   9.586290  10.022788   6.869783   7.207438
    38  H    9.571820   8.868870   9.272997   6.319710   6.565695
    39  H    9.906842   9.151702   9.566591   6.533790   6.869322
                   36         37         38         39
    36  H    0.000000
    37  O    6.010971   0.000000
    38  H    5.490157   0.977284   0.000000
    39  H    5.620349   0.974873   1.446616   0.000000
 Stoichiometry    C10H18O11(2-)
 Framework group  C1[X(C10H18O11)]
 Deg. of freedom   111
 Full point group                 C1      NOp   1
 Largest Abelian subgroup         C1      NOp   1
 Largest concise Abelian subgroup C1      NOp   1
                         Standard orientation:                         
 ---------------------------------------------------------------------
 Center     Atomic      Atomic             Coordinates (Angstroms)
 Number     Number       Type             X           Y           Z
 ---------------------------------------------------------------------
      1          6           0       -1.090640   -0.214478   -0.326192
      2          6           0       -0.482136    0.637630   -1.408189
      3          6           0       -1.054054    0.494825    1.006546
      4          6           0        0.269357    1.715608   -1.178591
      5          1           0       -0.683873    0.306497   -2.421416
      6          6           0       -2.592367   -0.604079   -0.668215
      7          6           0       -0.306418    1.578271    1.236499
      8          1           0       -1.627420    0.038436    1.806101
      9          6           0        0.598202    2.192516    0.202632
     10          1           0        0.716342    2.278853   -1.994412
     11          8           0       -3.031550   -0.252970   -1.786347
     12          8           0       -3.195605   -1.259118    0.232499
     13          1           0       -0.286173    2.028524    2.228665
     14          8           0        0.500283    3.656725    0.199323
     15          1           0        1.640255    1.921979    0.433029
     16          1           0        0.796259    3.944146    1.074067
     17          6           0       -0.310267   -1.585531   -0.243020
     18          6           0        0.955888   -1.491706    0.588832
     19          1           0       -0.060556   -1.909570   -1.256727
     20          1           0       -0.966129   -2.320187    0.226563
     21          6           0        2.251138   -1.026225   -0.114891
     22          8           0        0.950402   -1.803922    1.775023
     23          8           0        2.874661   -0.054835    0.392995
     24          8           0        2.537063   -1.707623   -1.134579
     25          8           0       -2.011481   -2.228736    2.646387
     26          1           0       -1.065003   -2.140885    2.447732
     27          1           0       -2.452870   -1.933169    1.821666
     28          8           0        5.713784   -0.657120    0.700961
     29          1           0        4.775916   -0.501884    0.914436
     30          1           0        5.648892   -0.653487   -0.271514
     31          8           0        4.662822   -0.163328   -1.939107
     32          1           0        3.995379   -0.886374   -1.843235
     33          1           0        4.271844    0.437491   -1.282388
     34          8           0       -2.241187    4.063283    0.881979
     35          1           0       -1.359430    4.048929    0.465679
     36          1           0       -2.460114    3.120987    0.871373
     37          8           0       -5.560035   -1.506500   -1.388853
     38          1           0       -4.872885   -0.989566   -1.853276
     39          1           0       -5.035914   -1.658559   -0.581046
 ---------------------------------------------------------------------
 Rotational constants (GHZ):      0.3407654      0.1742821      0.1471073
 Leave Link  202 at Wed Feb  6 11:18:54 2019, MaxMem=    33554432 cpu:         0.3
 (Enter /global/apps/Gaussian/09.d01/l301.exe)
 Standard basis: 6-311+G(2d,2p) (5D, 7F)
 Ernie: Thresh=  0.10000D-02 Tol=  0.10000D-05 Strict=F.
 There are   771 symmetry adapted cartesian basis functions of A   symmetry.
 There are   729 symmetry adapted basis functions of A   symmetry.
   729 basis functions,  1080 primitive gaussians,   771 cartesian basis functions
    84 alpha electrons       84 beta electrons
       nuclear repulsion energy      1870.8185359794 Hartrees.
 IExCor=  402 DFT=T Ex+Corr=B3LYP ExCW=0 ScaHFX=  0.200000
 ScaDFX=  0.800000  0.720000  1.000000  0.810000 ScalE2=  1.000000  1.000000
 IRadAn=      0 IRanWt=     -1 IRanGd=            0 ICorTp=0 IEmpDi=131
 NAtoms=   39 NActive=   39 NUniq=   39 SFac= 1.00D+00 NAtFMM=   60 NAOKFM=F Big=F
 Integral buffers will be    131072 words long.
 Raffenetti 2 integral format.
 Two-electron integral symmetry is turned on.
 R6Disp:  Grimme-D3 Dispersion energy=       -0.0505500741 Hartrees.
 Nuclear repulsion after empirical dispersion term =     1870.7679859053 Hartrees.
 Leave Link  301 at Wed Feb  6 11:18:54 2019, MaxMem=    33554432 cpu:         1.9
 (Enter /global/apps/Gaussian/09.d01/linda-exe/../l302.exel)
 NPDir=0 NMtPBC=     1 NCelOv=     1 NCel=       1 NClECP=     1 NCelD=      1
         NCelK=      1 NCelE2=     1 NClLst=     1 CellRange=     0.0.
 One-electron integrals computed using PRISM.
 PrsmSu:  requested number of processors reduced to:   7 ShMem   1 Linda.
 NBasis=   729 RedAO= T EigKep=  1.74D-06  NBF=   729
 NBsUse=   728 1.00D-06 EigRej=  9.02D-07 NBFU=   728
 Precomputing XC quadrature grid using
 IXCGrd= 4 IRadAn=           0 IRanWt=          -1 IRanGd=           0 AccXCQ= 0.00D+00.
 Generated NRdTot=       0 NPtTot=           0 NUsed=           0 NTot=          32
 NSgBfM=   721   728   729   738   741 MxSgAt=    39 MxSgA2=    39.
 Leave Link  302 at Wed Feb  6 11:18:57 2019, MaxMem=    33554432 cpu:        26.3
 (Enter /global/apps/Gaussian/09.d01/l303.exe)
 DipDrv:  MaxL=1.
 Leave Link  303 at Wed Feb  6 11:18:58 2019, MaxMem=    33554432 cpu:         4.9
 (Enter /global/apps/Gaussian/09.d01/linda-exe/../l401.exel)
 ExpMin= 4.38D-02 ExpMax= 8.59D+03 ExpMxC= 1.30D+03 IAcc=2 IRadAn=         4 AccDes= 0.00D+00
 Harris functional with IExCor=  402 and IRadAn=       4 diagonalized for initial guess.
 HarFok:  IExCor=  402 AccDes= 0.00D+00 IRadAn=         4 IDoV= 1 UseB2=F ITyADJ=14
 ICtDFT=  3500011 ScaDFX=  1.000000  1.000000  1.000000  1.000000
 CalDSu:  requested number of processors reduced to:  16 ShMem   4 Linda.
 FoFCou: FMM=F IPFlag=           0 FMFlag=      100000 FMFlg1=           0
         NFxFlg=           0 DoJE=T BraDBF=F KetDBF=T FulRan=T
         wScrn=  0.000000 ICntrl=     500 IOpCl=  0 I1Cent=   200000004 NGrid=           0
         NMat0=    1 NMatS0=      1 NMatT0=    0 NMatD0=    1 NMtDS0=    0 NMtDT0=    0
 Petite list used in FoFCou.
 CoulSu:  requested number of processors reduced to:  19 ShMem   4 Linda.
 CoulSu:  requested number of processors reduced to:  19 ShMem   4 Linda.
 Harris En= -1220.47032949609    
 JPrj=0 DoOrth=F DoCkMO=F.
 Leave Link  401 at Wed Feb  6 11:19:00 2019, MaxMem=    33554432 cpu:        36.7
 (Enter /global/apps/Gaussian/09.d01/linda-exe/../l502.exel)
 Closed shell SCF:
 Using DIIS extrapolation, IDIIS=  1040.
 Integral symmetry usage will be decided dynamically.
 IVT=     1822963 IEndB=     1822963 NGot=    33554432 MDV=    32343322
 LenX=    32343322 LenY=    31748110
 Requested convergence on RMS density matrix=1.00D-08 within 128 cycles.
 Requested convergence on MAX density matrix=1.00D-06.
 Requested convergence on             energy=1.00D-06.
 No special actions if energy rises.
 Fock matrices will be formed incrementally for  20 cycles.

 Cycle   1  Pass 1  IDiag  1:
 FoFJK:  IHMeth= 1 ICntrl=       0 DoSepK=F KAlg= 0 I1Cent=   0 FoldK=F
 IRaf= 760000000 NMat=   1 IRICut=       1 DoRegI=T DoRafI=F ISym2E= 0.
 FoFCou: FMM=F IPFlag=           0 FMFlag=      100000 FMFlg1=           0
         NFxFlg=           0 DoJE=F BraDBF=F KetDBF=F FulRan=T
         wScrn=  0.000000 ICntrl=       0 IOpCl=  0 I1Cent=           0 NGrid=           0
         NMat0=    1 NMatS0=      1 NMatT0=    0 NMatD0=    1 NMtDS0=    0 NMtDT0=    0
 Symmetry not used in FoFCou.
 CalDSu:  requested number of processors reduced to:  16 ShMem   4 Linda.
 E= -1219.09969651778    
 DIIS: error= 3.13D-02 at cycle   1 NSaved=   1.
 NSaved= 1 IEnMin= 1 EnMin= -1219.09969651778     IErMin= 1 ErrMin= 3.13D-02
 ErrMax= 3.13D-02  0.00D+00 EMaxC= 1.00D-01 BMatC= 1.30D+00 BMatP= 1.30D+00
 IDIUse=3 WtCom= 6.87D-01 WtEn= 3.13D-01
 Coeff-Com:  0.100D+01
 Coeff-En:   0.100D+01
 Coeff:      0.100D+01
 Gap=     0.127 Goal=   None    Shift=    0.000
 GapD=    0.127 DampG=1.000 DampE=0.500 DampFc=0.5000 IDamp=-1.
 Damping current iteration by 5.00D-01
 RMSDP=3.61D-02 MaxDP=9.31D+00              OVMax= 2.73D-01

 Cycle   2  Pass 1  IDiag  1:
 RMSU=  1.50D-02    CP:  1.41D+00
 CalDSu:  requested number of processors reduced to:  16 ShMem   4 Linda.
 E= -1219.30430840585     Delta-E=       -0.204611888070 Rises=F Damp=T
 DIIS: error= 1.10D-02 at cycle   2 NSaved=   2.
 NSaved= 2 IEnMin= 2 EnMin= -1219.30430840585     IErMin= 2 ErrMin= 1.10D-02
 ErrMax= 1.10D-02  0.00D+00 EMaxC= 1.00D-01 BMatC= 1.52D-01 BMatP= 1.30D+00
 IDIUse=3 WtCom= 8.90D-01 WtEn= 1.10D-01
 Coeff-Com:  0.225D+00 0.775D+00
 Coeff-En:   0.385D+00 0.615D+00
 Coeff:      0.242D+00 0.758D+00
 Gap=     0.187 Goal=   None    Shift=    0.000
 RMSDP=1.85D-02 MaxDP=5.36D+00 DE=-2.05D-01 OVMax= 1.88D-01

 Cycle   3  Pass 1  IDiag  1:
 RMSU=  4.23D-03    CP:  8.80D-01  1.62D-01
 CalDSu:  requested number of processors reduced to:  16 ShMem   4 Linda.
 E= -1219.95027331535     Delta-E=       -0.645964909499 Rises=F Damp=F
 DIIS: error= 5.36D-03 at cycle   3 NSaved=   3.
 NSaved= 3 IEnMin= 3 EnMin= -1219.95027331535     IErMin= 3 ErrMin= 5.36D-03
 ErrMax= 5.36D-03  0.00D+00 EMaxC= 1.00D-01 BMatC= 4.28D-02 BMatP= 1.52D-01
 IDIUse=3 WtCom= 9.46D-01 WtEn= 5.36D-02
 Coeff-Com:  0.767D-01 0.387D+00 0.536D+00
 Coeff-En:   0.000D+00 0.000D+00 0.100D+01
 Coeff:      0.726D-01 0.366D+00 0.561D+00
 Gap=     0.191 Goal=   None    Shift=    0.000
 RMSDP=1.65D-03 MaxDP=2.23D-01 DE=-6.46D-01 OVMax= 6.10D-02

 Cycle   4  Pass 1  IDiag  1:
 RMSU=  1.46D-03    CP:  8.71D-01  1.40D-01  8.43D-01
 CalDSu:  requested number of processors reduced to:  16 ShMem   4 Linda.
 E= -1219.97679335864     Delta-E=       -0.026520043293 Rises=F Damp=F
 DIIS: error= 2.67D-03 at cycle   4 NSaved=   4.
 NSaved= 4 IEnMin= 4 EnMin= -1219.97679335864     IErMin= 4 ErrMin= 2.67D-03
 ErrMax= 2.67D-03  0.00D+00 EMaxC= 1.00D-01 BMatC= 1.45D-02 BMatP= 4.28D-02
 IDIUse=3 WtCom= 9.73D-01 WtEn= 2.67D-02
 Coeff-Com:  0.121D-01 0.127D+00 0.378D+00 0.483D+00
 Coeff-En:   0.000D+00 0.000D+00 0.262D+00 0.738D+00
 Coeff:      0.118D-01 0.124D+00 0.375D+00 0.490D+00
 Gap=     0.178 Goal=   None    Shift=    0.000
 RMSDP=6.61D-04 MaxDP=1.05D-01 DE=-2.65D-02 OVMax= 2.45D-02

 Cycle   5  Pass 1  IDiag  1:
 RMSU=  3.64D-04    CP:  8.58D-01  1.40D-01  8.87D-01  7.19D-01
 CalDSu:  requested number of processors reduced to:  16 ShMem   4 Linda.
 E= -1219.98777545780     Delta-E=       -0.010982099158 Rises=F Damp=F
 DIIS: error= 7.46D-04 at cycle   5 NSaved=   5.
 NSaved= 5 IEnMin= 5 EnMin= -1219.98777545780     IErMin= 5 ErrMin= 7.46D-04
 ErrMax= 7.46D-04  0.00D+00 EMaxC= 1.00D-01 BMatC= 1.62D-03 BMatP= 1.45D-02
 IDIUse=3 WtCom= 9.93D-01 WtEn= 7.46D-03
 Coeff-Com: -0.271D-02 0.316D-01 0.173D+00 0.311D+00 0.487D+00
 Coeff-En:   0.000D+00 0.000D+00 0.000D+00 0.370D-01 0.963D+00
 Coeff:     -0.269D-02 0.313D-01 0.171D+00 0.309D+00 0.491D+00
 Gap=     0.177 Goal=   None    Shift=    0.000
 RMSDP=2.44D-04 MaxDP=3.92D-02 DE=-1.10D-02 OVMax= 8.22D-03

 Cycle   6  Pass 1  IDiag  1:
 RMSU=  1.64D-04    CP:  8.55D-01  1.37D-01  9.14D-01  6.88D-01  7.76D-01
 CalDSu:  requested number of processors reduced to:  16 ShMem   4 Linda.
 E= -1219.98896461764     Delta-E=       -0.001189159843 Rises=F Damp=F
 DIIS: error= 1.69D-04 at cycle   6 NSaved=   6.
 NSaved= 6 IEnMin= 6 EnMin= -1219.98896461764     IErMin= 6 ErrMin= 1.69D-04
 ErrMax= 1.69D-04  0.00D+00 EMaxC= 1.00D-01 BMatC= 9.70D-05 BMatP= 1.62D-03
 IDIUse=3 WtCom= 9.98D-01 WtEn= 1.69D-03
 Coeff-Com: -0.224D-02 0.518D-02 0.571D-01 0.119D+00 0.262D+00 0.559D+00
 Coeff-En:   0.000D+00 0.000D+00 0.000D+00 0.000D+00 0.000D+00 0.100D+01
 Coeff:     -0.224D-02 0.517D-02 0.570D-01 0.119D+00 0.262D+00 0.559D+00
 Gap=     0.177 Goal=   None    Shift=    0.000
 RMSDP=6.51D-05 MaxDP=5.78D-03 DE=-1.19D-03 OVMax= 1.74D-03

 Cycle   7  Pass 1  IDiag  1:
 RMSU=  3.58D-05    CP:  8.54D-01  1.36D-01  9.12D-01  6.95D-01  7.61D-01
                    CP:  6.97D-01
 CalDSu:  requested number of processors reduced to:  16 ShMem   4 Linda.
 E= -1219.98903228947     Delta-E=       -0.000067671824 Rises=F Damp=F
 DIIS: error= 9.30D-05 at cycle   7 NSaved=   7.
 NSaved= 7 IEnMin= 7 EnMin= -1219.98903228947     IErMin= 7 ErrMin= 9.30D-05
 ErrMax= 9.30D-05  0.00D+00 EMaxC= 1.00D-01 BMatC= 1.62D-05 BMatP= 9.70D-05
 IDIUse=1 WtCom= 1.00D+00 WtEn= 0.00D+00
 Coeff-Com: -0.970D-03 0.429D-03 0.209D-01 0.481D-01 0.121D+00 0.348D+00
 Coeff-Com:  0.463D+00
 Coeff:     -0.970D-03 0.429D-03 0.209D-01 0.481D-01 0.121D+00 0.348D+00
 Coeff:      0.463D+00
 Gap=     0.177 Goal=   None    Shift=    0.000
 RMSDP=2.26D-05 MaxDP=4.17D-03 DE=-6.77D-05 OVMax= 1.24D-03

 Cycle   8  Pass 1  IDiag  1:
 RMSU=  1.44D-05    CP:  8.54D-01  1.35D-01  9.10D-01  6.99D-01  7.61D-01
                    CP:  7.19D-01  7.15D-01
 CalDSu:  requested number of processors reduced to:  16 ShMem   4 Linda.
 E= -1219.98904292451     Delta-E=       -0.000010635048 Rises=F Damp=F
 DIIS: error= 4.55D-05 at cycle   8 NSaved=   8.
 NSaved= 8 IEnMin= 8 EnMin= -1219.98904292451     IErMin= 8 ErrMin= 4.55D-05
 ErrMax= 4.55D-05  0.00D+00 EMaxC= 1.00D-01 BMatC= 2.17D-06 BMatP= 1.62D-05
 IDIUse=1 WtCom= 1.00D+00 WtEn= 0.00D+00
 Coeff-Com: -0.191D-03-0.479D-03 0.541D-02 0.141D-01 0.397D-01 0.139D+00
 Coeff-Com:  0.297D+00 0.506D+00
 Coeff:     -0.191D-03-0.479D-03 0.541D-02 0.141D-01 0.397D-01 0.139D+00
 Coeff:      0.297D+00 0.506D+00
 Gap=     0.177 Goal=   None    Shift=    0.000
 RMSDP=1.02D-05 MaxDP=1.81D-03 DE=-1.06D-05 OVMax= 5.56D-04

 Cycle   9  Pass 1  IDiag  1:
 RMSU=  6.06D-06    CP:  8.54D-01  1.35D-01  9.10D-01  6.99D-01  7.65D-01
                    CP:  7.37D-01  7.12D-01  8.59D-01
 CalDSu:  requested number of processors reduced to:  16 ShMem   4 Linda.
 E= -1219.98904424488     Delta-E=       -0.000001320362 Rises=F Damp=F
 DIIS: error= 1.71D-05 at cycle   9 NSaved=   9.
 NSaved= 9 IEnMin= 9 EnMin= -1219.98904424488     IErMin= 9 ErrMin= 1.71D-05
 ErrMax= 1.71D-05  0.00D+00 EMaxC= 1.00D-01 BMatC= 3.70D-07 BMatP= 2.17D-06
 IDIUse=1 WtCom= 1.00D+00 WtEn= 0.00D+00
 Coeff-Com:  0.497D-04-0.419D-03 0.462D-03 0.209D-02 0.795D-02 0.383D-01
 Coeff-Com:  0.128D+00 0.338D+00 0.485D+00
 Coeff:      0.497D-04-0.419D-03 0.462D-03 0.209D-02 0.795D-02 0.383D-01
 Coeff:      0.128D+00 0.338D+00 0.485D+00
 Gap=     0.177 Goal=   None    Shift=    0.000
 RMSDP=2.91D-06 MaxDP=5.56D-04 DE=-1.32D-06 OVMax= 1.82D-04

 Cycle  10  Pass 1  IDiag  1:
 RMSU=  2.17D-06    CP:  8.54D-01  1.35D-01  9.10D-01  6.99D-01  7.66D-01
                    CP:  7.39D-01  7.22D-01  8.62D-01  8.91D-01
 CalDSu:  requested number of processors reduced to:  16 ShMem   4 Linda.
 E= -1219.98904450519     Delta-E=       -0.000000260314 Rises=F Damp=F
 DIIS: error= 4.82D-06 at cycle  10 NSaved=  10.
 NSaved=10 IEnMin=10 EnMin= -1219.98904450519     IErMin=10 ErrMin= 4.82D-06
 ErrMax= 4.82D-06  0.00D+00 EMaxC= 1.00D-01 BMatC= 2.36D-08 BMatP= 3.70D-07
 IDIUse=1 WtCom= 1.00D+00 WtEn= 0.00D+00
 Coeff-Com:  0.410D-04-0.201D-03-0.114D-03 0.127D-03 0.146D-02 0.976D-02
 Coeff-Com:  0.453D-01 0.139D+00 0.270D+00 0.535D+00
 Coeff:      0.410D-04-0.201D-03-0.114D-03 0.127D-03 0.146D-02 0.976D-02
 Coeff:      0.453D-01 0.139D+00 0.270D+00 0.535D+00
 Gap=     0.177 Goal=   None    Shift=    0.000
 RMSDP=9.39D-07 MaxDP=9.59D-05 DE=-2.60D-07 OVMax= 3.85D-05

 Cycle  11  Pass 1  IDiag  1:
 RMSU=  5.65D-07    CP:  8.54D-01  1.35D-01  9.10D-01  6.99D-01  7.65D-01
                    CP:  7.39D-01  7.34D-01  8.57D-01  8.48D-01  8.21D-01
 CalDSu:  requested number of processors reduced to:  16 ShMem   4 Linda.
 E= -1219.98904452068     Delta-E=       -0.000000015490 Rises=F Damp=F
 DIIS: error= 1.45D-06 at cycle  11 NSaved=  11.
 NSaved=11 IEnMin=11 EnMin= -1219.98904452068     IErMin=11 ErrMin= 1.45D-06
 ErrMax= 1.45D-06  0.00D+00 EMaxC= 1.00D-01 BMatC= 2.95D-09 BMatP= 2.36D-08
 IDIUse=1 WtCom= 1.00D+00 WtEn= 0.00D+00
 Coeff-Com:  0.171D-04-0.581D-04-0.115D-03-0.205D-03-0.157D-03 0.712D-03
 Coeff-Com:  0.957D-02 0.362D-01 0.905D-01 0.304D+00 0.560D+00
 Coeff:      0.171D-04-0.581D-04-0.115D-03-0.205D-03-0.157D-03 0.712D-03
 Coeff:      0.957D-02 0.362D-01 0.905D-01 0.304D+00 0.560D+00
 Gap=     0.177 Goal=   None    Shift=    0.000
 RMSDP=3.90D-07 MaxDP=4.85D-05 DE=-1.55D-08 OVMax= 1.50D-05

 Cycle  12  Pass 1  IDiag  1:
 RMSU=  2.15D-07    CP:  8.54D-01  1.35D-01  9.10D-01  6.99D-01  7.65D-01
                    CP:  7.39D-01  7.33D-01  8.63D-01  8.75D-01  8.31D-01
                    CP:  7.60D-01
 CalDSu:  requested number of processors reduced to:  16 ShMem   4 Linda.
 E= -1219.98904452249     Delta-E=       -0.000000001814 Rises=F Damp=F
 DIIS: error= 9.86D-07 at cycle  12 NSaved=  12.
 NSaved=12 IEnMin=12 EnMin= -1219.98904452249     IErMin=12 ErrMin= 9.86D-07
 ErrMax= 9.86D-07  0.00D+00 EMaxC= 1.00D-01 BMatC= 7.31D-10 BMatP= 2.95D-09
 IDIUse=1 WtCom= 1.00D+00 WtEn= 0.00D+00
 Coeff-Com:  0.598D-05-0.167D-04-0.637D-04-0.155D-03-0.254D-03-0.603D-03
 Coeff-Com:  0.131D-02 0.884D-02 0.299D-01 0.143D+00 0.381D+00 0.437D+00
 Coeff:      0.598D-05-0.167D-04-0.637D-04-0.155D-03-0.254D-03-0.603D-03
 Coeff:      0.131D-02 0.884D-02 0.299D-01 0.143D+00 0.381D+00 0.437D+00
 Gap=     0.177 Goal=   None    Shift=    0.000
 RMSDP=1.49D-07 MaxDP=2.55D-05 DE=-1.81D-09 OVMax= 7.20D-06

 Cycle  13  Pass 1  IDiag  1:
 RMSU=  9.94D-08    CP:  8.54D-01  1.35D-01  9.10D-01  6.99D-01  7.65D-01
                    CP:  7.39D-01  7.33D-01  8.63D-01  8.75D-01  8.44D-01
                    CP:  8.14D-01  7.50D-01
 CalDSu:  requested number of processors reduced to:  16 ShMem   4 Linda.
 E= -1219.98904452304     Delta-E=       -0.000000000549 Rises=F Damp=F
 DIIS: error= 2.45D-07 at cycle  13 NSaved=  13.
 NSaved=13 IEnMin=13 EnMin= -1219.98904452304     IErMin=13 ErrMin= 2.45D-07
 ErrMax= 2.45D-07  0.00D+00 EMaxC= 1.00D-01 BMatC= 6.87D-11 BMatP= 7.31D-10
 IDIUse=1 WtCom= 1.00D+00 WtEn= 0.00D+00
 Coeff-Com: -0.489D-06 0.972D-06-0.142D-04-0.509D-04-0.103D-03-0.441D-03
 Coeff-Com: -0.912D-03-0.123D-02 0.179D-03 0.238D-01 0.121D+00 0.267D+00
 Coeff-Com:  0.591D+00
 Coeff:     -0.489D-06 0.972D-06-0.142D-04-0.509D-04-0.103D-03-0.441D-03
 Coeff:     -0.912D-03-0.123D-02 0.179D-03 0.238D-01 0.121D+00 0.267D+00
 Coeff:      0.591D+00
 Gap=     0.177 Goal=   None    Shift=    0.000
 RMSDP=4.87D-08 MaxDP=4.62D-06 DE=-5.49D-10 OVMax= 2.04D-06

 Cycle  14  Pass 1  IDiag  1:
 RMSU=  3.29D-08    CP:  8.54D-01  1.35D-01  9.10D-01  6.99D-01  7.65D-01
                    CP:  7.39D-01  7.33D-01  8.64D-01  8.77D-01  8.52D-01
                    CP:  8.00D-01  7.56D-01  9.15D-01
 CalDSu:  requested number of processors reduced to:  16 ShMem   4 Linda.
 E= -1219.98904452317     Delta-E=       -0.000000000126 Rises=F Damp=F
 DIIS: error= 4.70D-08 at cycle  14 NSaved=  14.
 NSaved=14 IEnMin=14 EnMin= -1219.98904452317     IErMin=14 ErrMin= 4.70D-08
 ErrMax= 4.70D-08  0.00D+00 EMaxC= 1.00D-01 BMatC= 3.51D-12 BMatP= 6.87D-11
 IDIUse=1 WtCom= 1.00D+00 WtEn= 0.00D+00
 Coeff-Com: -0.857D-06 0.175D-05-0.249D-05-0.140D-04-0.314D-04-0.174D-03
 Coeff-Com: -0.545D-03-0.129D-02-0.238D-02-0.839D-03 0.288D-01 0.931D-01
 Coeff-Com:  0.278D+00 0.606D+00
 Coeff:     -0.857D-06 0.175D-05-0.249D-05-0.140D-04-0.314D-04-0.174D-03
 Coeff:     -0.545D-03-0.129D-02-0.238D-02-0.839D-03 0.288D-01 0.931D-01
 Coeff:      0.278D+00 0.606D+00
 Gap=     0.177 Goal=   None    Shift=    0.000
 RMSDP=1.45D-08 MaxDP=1.71D-06 DE=-1.26D-10 OVMax= 3.32D-07

 Cycle  15  Pass 1  IDiag  1:
 RMSU=  7.29D-09    CP:  8.54D-01  1.35D-01  9.10D-01  6.99D-01  7.65D-01
                    CP:  7.39D-01  7.33D-01  8.63D-01  8.77D-01  8.53D-01
                    CP:  8.05D-01  7.80D-01  9.65D-01  9.56D-01
 CalDSu:  requested number of processors reduced to:  16 ShMem   4 Linda.
 E= -1219.98904452310     Delta-E=        0.000000000068 Rises=F Damp=F
 DIIS: error= 1.75D-08 at cycle  15 NSaved=  15.
 NSaved=15 IEnMin=14 EnMin= -1219.98904452317     IErMin=15 ErrMin= 1.75D-08
 ErrMax= 1.75D-08  0.00D+00 EMaxC= 1.00D-01 BMatC= 5.23D-13 BMatP= 3.51D-12
 IDIUse=1 WtCom= 1.00D+00 WtEn= 0.00D+00
 Coeff-Com: -0.351D-06 0.779D-06-0.394D-06-0.311D-05-0.805D-05-0.488D-04
 Coeff-Com: -0.171D-03-0.483D-03-0.112D-02-0.291D-02 0.217D-02 0.185D-01
 Coeff-Com:  0.777D-01 0.320D+00 0.586D+00
 Coeff:     -0.351D-06 0.779D-06-0.394D-06-0.311D-05-0.805D-05-0.488D-04
 Coeff:     -0.171D-03-0.483D-03-0.112D-02-0.291D-02 0.217D-02 0.185D-01
 Coeff:      0.777D-01 0.320D+00 0.586D+00
 Gap=     0.177 Goal=   None    Shift=    0.000
 RMSDP=4.79D-09 MaxDP=6.85D-07 DE= 6.78D-11 OVMax= 1.68D-07

 SCF Done:  E(RB3LYP) =  -1219.98904452     A.U. after   15 cycles
            NFock= 15  Conv=0.48D-08     -V/T= 2.0037
 KE= 1.215542575312D+03 PE=-6.648437496822D+03 EE= 2.342137891082D+03
 Leave Link  502 at Wed Feb  6 11:20:56 2019, MaxMem=    33554432 cpu:      2223.6
 (Enter /global/apps/Gaussian/09.d01/l601.exe)
 Copying SCF densities to generalized density rwf, IOpCl= 0 IROHF=0.

 **********************************************************************

            Population analysis using the SCF density.

 **********************************************************************

 Orbital symmetries:
       Occupied  (A) (A) (A) (A) (A) (A) (A) (A) (A) (A) (A) (A)
                 (A) (A) (A) (A) (A) (A) (A) (A) (A) (A) (A) (A)
                 (A) (A) (A) (A) (A) (A) (A) (A) (A) (A) (A) (A)
                 (A) (A) (A) (A) (A) (A) (A) (A) (A) (A) (A) (A)
                 (A) (A) (A) (A) (A) (A) (A) (A) (A) (A) (A) (A)
                 (A) (A) (A) (A) (A) (A) (A) (A) (A) (A) (A) (A)
                 (A) (A) (A) (A) (A) (A) (A) (A) (A) (A) (A) (A)
       Virtual   (A) (A) (A) (A) (A) (A) (A) (A) (A) (A) (A) (A)
                 (A) (A) (A) (A) (A) (A) (A) (A) (A) (A) (A) (A)
                 (A) (A) (A) (A) (A) (A) (A) (A) (A) (A) (A) (A)
                 (A) (A) (A) (A) (A) (A) (A) (A) (A) (A) (A) (A)
                 (A) (A) (A) (A) (A) (A) (A) (A) (A) (A) (A) (A)
                 (A) (A) (A) (A) (A) (A) (A) (A) (A) (A) (A) (A)
                 (A) (A) (A) (A) (A) (A) (A) (A) (A) (A) (A) (A)
                 (A) (A) (A) (A) (A) (A) (A) (A) (A) (A) (A) (A)
                 (A) (A) (A) (A) (A) (A) (A) (A) (A) (A) (A) (A)
                 (A) (A) (A) (A) (A) (A) (A) (A) (A) (A) (A) (A)
                 (A) (A) (A) (A) (A) (A) (A) (A) (A) (A) (A) (A)
                 (A) (A) (A) (A) (A) (A) (A) (A) (A) (A) (A) (A)
                 (A) (A) (A) (A) (A) (A) (A) (A) (A) (A) (A) (A)
                 (A) (A) (A) (A) (A) (A) (A) (A) (A) (A) (A) (A)
                 (A) (A) (A) (A) (A) (A) (A) (A) (A) (A) (A) (A)
                 (A) (A) (A) (A) (A) (A) (A) (A) (A) (A) (A) (A)
                 (A) (A) (A) (A) (A) (A) (A) (A) (A) (A) (A) (A)
                 (A) (A) (A) (A) (A) (A) (A) (A) (A) (A) (A) (A)
                 (A) (A) (A) (A) (A) (A) (A) (A) (A) (A) (A) (A)
                 (A) (A) (A) (A) (A) (A) (A) (A) (A) (A) (A) (A)
                 (A) (A) (A) (A) (A) (A) (A) (A) (A) (A) (A) (A)
                 (A) (A) (A) (A) (A) (A) (A) (A) (A) (A) (A) (A)
                 (A) (A) (A) (A) (A) (A) (A) (A) (A) (A) (A) (A)
                 (A) (A) (A) (A) (A) (A) (A) (A) (A) (A) (A) (A)
                 (A) (A) (A) (A) (A) (A) (A) (A) (A) (A) (A) (A)
                 (A) (A) (A) (A) (A) (A) (A) (A) (A) (A) (A) (A)
                 (A) (A) (A) (A) (A) (A) (A) (A) (A) (A) (A) (A)
                 (A) (A) (A) (A) (A) (A) (A) (A) (A) (A) (A) (A)
                 (A) (A) (A) (A) (A) (A) (A) (A) (A) (A) (A) (A)
                 (A) (A) (A) (A) (A) (A) (A) (A) (A) (A) (A) (A)
                 (A) (A) (A) (A) (A) (A) (A) (A) (A) (A) (A) (A)
                 (A) (A) (A) (A) (A) (A) (A) (A) (A) (A) (A) (A)
                 (A) (A) (A) (A) (A) (A) (A) (A) (A) (A) (A) (A)
                 (A) (A) (A) (A) (A) (A) (A) (A) (A) (A) (A) (A)
                 (A) (A) (A) (A) (A) (A) (A) (A) (A) (A) (A) (A)
                 (A) (A) (A) (A) (A) (A) (A) (A) (A) (A) (A) (A)
                 (A) (A) (A) (A) (A) (A) (A) (A) (A) (A) (A) (A)
                 (A) (A) (A) (A) (A) (A) (A) (A) (A) (A) (A) (A)
                 (A) (A) (A) (A) (A) (A) (A) (A) (A) (A) (A) (A)
                 (A) (A) (A) (A) (A) (A) (A) (A) (A) (A) (A) (A)
                 (A) (A) (A) (A) (A) (A) (A) (A) (A) (A) (A) (A)
                 (A) (A) (A) (A) (A) (A) (A) (A) (A) (A) (A) (A)
                 (A) (A) (A) (A) (A) (A) (A) (A) (A) (A) (A) (A)
                 (A) (A) (A) (A) (A) (A) (A) (A) (A) (A) (A) (A)
                 (A) (A) (A) (A) (A) (A) (A) (A) (A) (A) (A) (A)
                 (A) (A) (A) (A) (A) (A) (A) (A) (A) (A) (A) (A)
                 (A) (A) (A) (A) (A) (A) (A) (A) (A) (A) (A) (A)
                 (A) (A) (A) (A) (A) (A) (A) (A) (A) (A) (A) (A)
                 (A) (A) (A) (A) (A) (A) (A) (A) (A) (A) (A) (A)
                 (A) (A) (A) (A) (A) (A) (A) (A) (A) (A) (A) (A)
                 (A) (A) (A) (A) (A) (A) (A) (A) (A) (A) (A) (A)
                 (A) (A) (A) (A) (A) (A) (A) (A) (A) (A) (A) (A)
                 (A) (A) (A) (A) (A) (A) (A) (A) (A) (A) (A) (A)
                 (A) (A) (A) (A) (A) (A) (A) (A)
 The electronic state is 1-A.
 Alpha  occ. eigenvalues --  -18.96726 -18.93053 -18.92617 -18.90810 -18.90028
 Alpha  occ. eigenvalues --  -18.89442 -18.88554 -18.88516 -18.88164 -18.87144
 Alpha  occ. eigenvalues --  -18.87019 -10.06999 -10.06398 -10.06253 -10.04611
 Alpha  occ. eigenvalues --  -10.00347  -9.98675  -9.98514  -9.98228  -9.98224
 Alpha  occ. eigenvalues --   -9.98099  -0.85909  -0.85836  -0.83427  -0.83269
 Alpha  occ. eigenvalues --   -0.81710  -0.79731  -0.78409  -0.78044  -0.77141
 Alpha  occ. eigenvalues --   -0.75719  -0.74570  -0.66006  -0.58677  -0.56451
 Alpha  occ. eigenvalues --   -0.51678  -0.45259  -0.41422  -0.40984  -0.34586
 Alpha  occ. eigenvalues --   -0.33829  -0.33392  -0.31427  -0.30517  -0.30413
 Alpha  occ. eigenvalues --   -0.29854  -0.29589  -0.28271  -0.27468  -0.27191
 Alpha  occ. eigenvalues --   -0.25935  -0.25582  -0.24611  -0.23564  -0.23303
 Alpha  occ. eigenvalues --   -0.22538  -0.22142  -0.21190  -0.20874  -0.20330
 Alpha  occ. eigenvalues --   -0.19988  -0.19757  -0.18888  -0.18028  -0.17803
 Alpha  occ. eigenvalues --   -0.17068  -0.16542  -0.15456  -0.13632  -0.12871
 Alpha  occ. eigenvalues --   -0.11717  -0.10703  -0.10385  -0.09670  -0.09120
 Alpha  occ. eigenvalues --   -0.08239  -0.08198  -0.07695  -0.07092  -0.06114
 Alpha  occ. eigenvalues --   -0.05859  -0.04560  -0.04218  -0.02743
 Alpha virt. eigenvalues --    0.14928   0.15432   0.18203   0.18677   0.19471
 Alpha virt. eigenvalues --    0.19514   0.20161   0.21377   0.21600   0.22211
 Alpha virt. eigenvalues --    0.22517   0.23410   0.23708   0.24332   0.25039
 Alpha virt. eigenvalues --    0.25319   0.25503   0.26308   0.26654   0.27116
 Alpha virt. eigenvalues --    0.27555   0.28388   0.29011   0.29179   0.29739
 Alpha virt. eigenvalues --    0.30036   0.30290   0.31130   0.31416   0.31947
 Alpha virt. eigenvalues --    0.32231   0.32507   0.33423   0.33679   0.34186
 Alpha virt. eigenvalues --    0.34438   0.34651   0.34787   0.35008   0.35345
 Alpha virt. eigenvalues --    0.35718   0.36253   0.36369   0.36689   0.37060
 Alpha virt. eigenvalues --    0.37209   0.37526   0.37888   0.38272   0.38537
 Alpha virt. eigenvalues --    0.38743   0.39194   0.39221   0.39284   0.39888
 Alpha virt. eigenvalues --    0.40291   0.40631   0.40747   0.41319   0.41478
 Alpha virt. eigenvalues --    0.41765   0.42039   0.42293   0.42662   0.43072
 Alpha virt. eigenvalues --    0.43384   0.43789   0.44077   0.44779   0.44933
 Alpha virt. eigenvalues --    0.45275   0.45408   0.45594   0.46119   0.46541
 Alpha virt. eigenvalues --    0.46676   0.47364   0.47868   0.48287   0.48896
 Alpha virt. eigenvalues --    0.49452   0.49712   0.50062   0.50891   0.51192
 Alpha virt. eigenvalues --    0.51236   0.51587   0.51884   0.52169   0.52835
 Alpha virt. eigenvalues --    0.53343   0.53450   0.54180   0.54369   0.54849
 Alpha virt. eigenvalues --    0.55038   0.55439   0.56234   0.56584   0.56811
 Alpha virt. eigenvalues --    0.57199   0.58485   0.59163   0.60159   0.60496
 Alpha virt. eigenvalues --    0.60744   0.61658   0.62446   0.62829   0.63001
 Alpha virt. eigenvalues --    0.63234   0.64240   0.64759   0.65445   0.66254
 Alpha virt. eigenvalues --    0.66813   0.67004   0.68345   0.68447   0.68484
 Alpha virt. eigenvalues --    0.69097   0.69336   0.70853   0.71146   0.71327
 Alpha virt. eigenvalues --    0.72968   0.73144   0.73811   0.74271   0.74838
 Alpha virt. eigenvalues --    0.75068   0.75402   0.76281   0.76723   0.77893
 Alpha virt. eigenvalues --    0.78073   0.78521   0.78663   0.79415   0.80191
 Alpha virt. eigenvalues --    0.80524   0.81407   0.81887   0.82105   0.82492
 Alpha virt. eigenvalues --    0.83285   0.83518   0.83997   0.84679   0.85132
 Alpha virt. eigenvalues --    0.85267   0.85734   0.85880   0.86547   0.86958
 Alpha virt. eigenvalues --    0.87954   0.88128   0.88514   0.88726   0.89747
 Alpha virt. eigenvalues --    0.90217   0.90575   0.91651   0.92303   0.92463
 Alpha virt. eigenvalues --    0.92936   0.93680   0.94263   0.95280   0.95919
 Alpha virt. eigenvalues --    0.96466   0.97600   0.98166   0.98597   0.99387
 Alpha virt. eigenvalues --    0.99844   1.00331   1.01042   1.01144   1.01598
 Alpha virt. eigenvalues --    1.03344   1.03472   1.04315   1.04759   1.05362
 Alpha virt. eigenvalues --    1.06395   1.06909   1.07394   1.09031   1.09092
 Alpha virt. eigenvalues --    1.09876   1.10663   1.11081   1.11999   1.13073
 Alpha virt. eigenvalues --    1.13278   1.13503   1.13766   1.14380   1.14979
 Alpha virt. eigenvalues --    1.15760   1.15868   1.16380   1.16720   1.17698
 Alpha virt. eigenvalues --    1.18368   1.19178   1.19516   1.20022   1.20723
 Alpha virt. eigenvalues --    1.22135   1.22666   1.23252   1.24223   1.25078
 Alpha virt. eigenvalues --    1.26264   1.26636   1.27297   1.27828   1.27969
 Alpha virt. eigenvalues --    1.28713   1.29114   1.29791   1.30217   1.30953
 Alpha virt. eigenvalues --    1.31187   1.31355   1.32199   1.32427   1.33042
 Alpha virt. eigenvalues --    1.33831   1.34223   1.34668   1.35382   1.35584
 Alpha virt. eigenvalues --    1.36840   1.37635   1.38529   1.38594   1.39004
 Alpha virt. eigenvalues --    1.39979   1.40511   1.40970   1.41533   1.42880
 Alpha virt. eigenvalues --    1.43352   1.44152   1.44294   1.44805   1.45743
 Alpha virt. eigenvalues --    1.45997   1.46588   1.46878   1.47706   1.48600
 Alpha virt. eigenvalues --    1.49087   1.49498   1.50170   1.50774   1.51457
 Alpha virt. eigenvalues --    1.52603   1.53281   1.53590   1.53996   1.54844
 Alpha virt. eigenvalues --    1.55292   1.55647   1.56425   1.57617   1.59012
 Alpha virt. eigenvalues --    1.59483   1.60208   1.60572   1.61547   1.61715
 Alpha virt. eigenvalues --    1.61869   1.63154   1.63598   1.64092   1.64637
 Alpha virt. eigenvalues --    1.65458   1.66497   1.66778   1.67345   1.68374
 Alpha virt. eigenvalues --    1.69077   1.70232   1.70816   1.70941   1.72174
 Alpha virt. eigenvalues --    1.72650   1.73529   1.74527   1.75531   1.76692
 Alpha virt. eigenvalues --    1.77042   1.78076   1.78566   1.80101   1.80996
 Alpha virt. eigenvalues --    1.81854   1.82509   1.83458   1.84102   1.85064
 Alpha virt. eigenvalues --    1.85286   1.86971   1.88429   1.88803   1.89481
 Alpha virt. eigenvalues --    1.90272   1.91633   1.92539   1.93105   1.93640
 Alpha virt. eigenvalues --    1.94988   1.97548   1.98020   1.98626   1.99711
 Alpha virt. eigenvalues --    2.01184   2.01835   2.02410   2.03334   2.04261
 Alpha virt. eigenvalues --    2.04860   2.05338   2.05894   2.06482   2.07996
 Alpha virt. eigenvalues --    2.08289   2.08902   2.09477   2.10090   2.11307
 Alpha virt. eigenvalues --    2.11920   2.12953   2.14962   2.15361   2.16542
 Alpha virt. eigenvalues --    2.18100   2.18662   2.20199   2.20495   2.21965
 Alpha virt. eigenvalues --    2.23607   2.25188   2.25635   2.29033   2.30466
 Alpha virt. eigenvalues --    2.31749   2.34363   2.37479   2.37591   2.42009
 Alpha virt. eigenvalues --    2.43941   2.44477   2.45346   2.46086   2.47245
 Alpha virt. eigenvalues --    2.48777   2.49076   2.50220   2.51249   2.52072
 Alpha virt. eigenvalues --    2.52891   2.54045   2.55035   2.55683   2.57946
 Alpha virt. eigenvalues --    2.59193   2.63775   2.65271   2.66002   2.67028
 Alpha virt. eigenvalues --    2.72503   2.77577   2.79582   2.81444   2.82051
 Alpha virt. eigenvalues --    2.83014   2.83834   2.85008   2.87559   2.92989
 Alpha virt. eigenvalues --    2.94412   2.95227   2.98144   3.01400   3.04290
 Alpha virt. eigenvalues --    3.07105   3.08440   3.09368   3.10672   3.13087
 Alpha virt. eigenvalues --    3.17369   3.17760   3.19306   3.19708   3.21168
 Alpha virt. eigenvalues --    3.22671   3.23101   3.23608   3.25766   3.27310
 Alpha virt. eigenvalues --    3.29036   3.30144   3.30525   3.32058   3.34839
 Alpha virt. eigenvalues --    3.35819   3.36698   3.39562   3.42668   3.43910
 Alpha virt. eigenvalues --    3.45812   3.48908   3.50492   3.53672   3.54663
 Alpha virt. eigenvalues --    3.55462   3.57348   3.58980   3.61581   3.63041
 Alpha virt. eigenvalues --    3.64063   3.65295   3.66336   3.67089   3.69355
 Alpha virt. eigenvalues --    3.70573   3.72105   3.72710   3.73804   3.75134
 Alpha virt. eigenvalues --    3.76404   3.76931   3.78085   3.79666   3.80749
 Alpha virt. eigenvalues --    3.81567   3.82700   3.83836   3.85719   3.86258
 Alpha virt. eigenvalues --    3.87874   3.89019   3.89421   3.90525   3.91615
 Alpha virt. eigenvalues --    3.92683   3.93409   3.94285   3.96112   3.96917
 Alpha virt. eigenvalues --    3.97188   3.97818   3.99114   3.99565   4.00799
 Alpha virt. eigenvalues --    4.01623   4.02532   4.03046   4.04025   4.04336
 Alpha virt. eigenvalues --    4.04990   4.05736   4.06411   4.06749   4.08361
 Alpha virt. eigenvalues --    4.08902   4.09526   4.10511   4.13582   4.13929
 Alpha virt. eigenvalues --    4.14242   4.15353   4.15756   4.16518   4.16705
 Alpha virt. eigenvalues --    4.17734   4.19630   4.20978   4.21633   4.22207
 Alpha virt. eigenvalues --    4.22458   4.25290   4.26958   4.27592   4.28166
 Alpha virt. eigenvalues --    4.29343   4.29507   4.30903   4.31500   4.32072
 Alpha virt. eigenvalues --    4.34439   4.35175   4.35844   4.36309   4.38107
 Alpha virt. eigenvalues --    4.39769   4.40627   4.41607   4.41976   4.43314
 Alpha virt. eigenvalues --    4.44340   4.46000   4.48634   4.49377   4.50057
 Alpha virt. eigenvalues --    4.51971   4.52233   4.53036   4.53460   4.55748
 Alpha virt. eigenvalues --    4.57941   4.58770   4.59714   4.61049   4.62922
 Alpha virt. eigenvalues --    4.64309   4.65055   4.66501   4.68035   4.69527
 Alpha virt. eigenvalues --    4.75368   4.88826   5.00116   5.05879   5.09738
 Alpha virt. eigenvalues --    5.13766   5.23149   5.24650   5.25750   5.26808
 Alpha virt. eigenvalues --    5.30689   5.32469   5.33287   5.35566   5.35928
 Alpha virt. eigenvalues --    5.36324   5.36803   5.37566   5.39260   5.45110
 Alpha virt. eigenvalues --    5.47262   5.56296   5.59135   5.61763   5.64694
 Alpha virt. eigenvalues --    5.66643   5.68901   5.85411   5.88142   5.88496
 Alpha virt. eigenvalues --    5.95292   5.95890   5.99917   6.06060   6.16214
 Alpha virt. eigenvalues --    6.20402   6.26009   6.27793   6.30991   6.32518
 Alpha virt. eigenvalues --    6.32740   6.35304   6.44357   7.00413   7.01447
 Alpha virt. eigenvalues --    7.04285   7.06553   7.07188   7.07515   7.07684
 Alpha virt. eigenvalues --    7.08817   7.10990   7.11199   7.12256   7.12373
 Alpha virt. eigenvalues --    7.13197   7.13433   7.14142   7.15190   7.16052
 Alpha virt. eigenvalues --    7.16956   7.17564   7.20030   7.23411   7.24605
 Alpha virt. eigenvalues --    7.24869   7.26057   7.27345   7.28079   7.31821
 Alpha virt. eigenvalues --    7.32745   7.33988   7.34984   7.36337   7.38018
 Alpha virt. eigenvalues --    7.38689   7.40308   7.41188   7.41828   7.43891
 Alpha virt. eigenvalues --    7.46302   7.47177   7.48683   7.51068   7.52555
 Alpha virt. eigenvalues --    7.53369   7.53814   7.56909   7.58034   7.58762
 Alpha virt. eigenvalues --    7.61453   7.68199   7.68657   7.71540   7.72075
 Alpha virt. eigenvalues --    7.73313   7.73558   7.81260  24.01827  24.05796
 Alpha virt. eigenvalues --   24.11184  24.15600  24.20886  24.23906  24.37438
 Alpha virt. eigenvalues --   24.39721  24.40579  24.56608  50.11372  50.13453
 Alpha virt. eigenvalues --   50.15728  50.16606  50.18094  50.21381  50.24455
 Alpha virt. eigenvalues --   50.25436  50.27803  50.27999  50.33272
          Condensed to atoms (all electrons):
               1          2          3          4          5          6
     1  C   18.090142   0.210372  -1.577741  -0.776798  -0.041628  -3.606970
     2  C    0.210372  10.563751  -3.568258  -0.079320   0.364496  -0.243439
     3  C   -1.577741  -3.568258  13.780443   0.421053   0.017065  -0.607475
     4  C   -0.776798  -0.079320   0.421053   7.800468   0.046401  -0.077013
     5  H   -0.041628   0.364496   0.017065   0.046401   0.545322  -0.007297
     6  C   -3.606970  -0.243439  -0.607475  -0.077013  -0.007297   9.778018
     7  C   -3.969707   0.617103  -0.984024  -1.038807  -0.023612  -0.364694
     8  H    0.009189   0.030808   0.344969  -0.008734  -0.000193   0.034546
     9  C   -0.685708  -0.991275  -1.863467  -0.317717   0.017188  -0.148116
    10  H    0.028814   0.004496  -0.027104   0.320299  -0.010736   0.009414
    11  O    0.246486   0.047490  -0.090409   0.039681  -0.008671   0.229459
    12  O   -0.291194  -0.070204   0.096498  -0.030081  -0.000259   0.468563
    13  H    0.060210  -0.025332  -0.014840   0.015589   0.000111   0.002397
    14  O    0.042181   0.066141   0.153361  -0.032238  -0.000709  -0.015358
    15  H    0.032087  -0.006952  -0.008306  -0.036571  -0.000196   0.012705
    16  H    0.004179  -0.035320   0.021664  -0.025250   0.000047   0.001069
    17  C   -4.242456  -1.294818   1.286518  -0.050100  -0.003455   0.698000
    18  C    1.412370   0.824192  -0.797738  -0.034208   0.008312  -0.657740
    19  H   -0.111136   0.041122   0.005405   0.006480   0.003035   0.012437
    20  H   -0.101355  -0.039757   0.085939  -0.010859  -0.000384   0.036518
    21  C    0.150961  -0.090473  -0.309098   0.005848   0.000860   0.111636
    22  O    0.010346  -0.035427   0.012746  -0.002712  -0.000068   0.039071
    23  O    0.033963  -0.035809   0.016687   0.024300   0.000164   0.002753
    24  O   -0.006526   0.022908   0.011967  -0.020592  -0.000471  -0.004350
    25  O    0.027184  -0.013464   0.023750   0.006051   0.000019   0.045532
    26  H   -0.011250  -0.012513   0.035460  -0.001064   0.000000   0.004840
    27  H   -0.044409  -0.010361   0.033639  -0.004260  -0.000024  -0.011448
    28  O   -0.000021  -0.003510   0.001836   0.001774   0.000002  -0.000038
    29  H   -0.000280   0.001488  -0.000822  -0.001967  -0.000001   0.000049
    30  H    0.000352  -0.000227  -0.000039  -0.000019   0.000000   0.000033
    31  O   -0.005662   0.003710  -0.000824   0.008598   0.000013  -0.000526
    32  H    0.005857  -0.004399   0.000641  -0.004636   0.000027   0.000023
    33  H   -0.008339  -0.008119   0.000737   0.008719   0.000022  -0.000609
    34  O    0.005249  -0.032237   0.021703   0.022250   0.000048  -0.013030
    35  H    0.003150  -0.003037  -0.021417  -0.003409  -0.000017  -0.000113
    36  H   -0.009241   0.002675   0.017068   0.007524   0.000013   0.002070
    37  O   -0.016703  -0.000025  -0.004910   0.000968   0.000146   0.050073
    38  H   -0.012835  -0.002544   0.003301  -0.002110  -0.000142   0.004384
    39  H    0.009788   0.008710  -0.015791   0.000776   0.000000   0.010176
               7          8          9         10         11         12
     1  C   -3.969707   0.009189  -0.685708   0.028814   0.246486  -0.291194
     2  C    0.617103   0.030808  -0.991275   0.004496   0.047490  -0.070204
     3  C   -0.984024   0.344969  -1.863467  -0.027104  -0.090409   0.096498
     4  C   -1.038807  -0.008734  -0.317717   0.320299   0.039681  -0.030081
     5  H   -0.023612  -0.000193   0.017188  -0.010736  -0.008671  -0.000259
     6  C   -0.364694   0.034546  -0.148116   0.009414   0.229459   0.468563
     7  C   10.920106  -0.070632   0.932323   0.027836  -0.034083   0.127588
     8  H   -0.070632   0.516065   0.007512   0.000111   0.000856  -0.007286
     9  C    0.932323   0.007512   8.232275  -0.000954   0.011321   0.016304
    10  H    0.027836   0.000111  -0.000954   0.580598   0.000383   0.000064
    11  O   -0.034083   0.000856   0.011321   0.000383   8.318714  -0.081293
    12  O    0.127588  -0.007286   0.016304   0.000064  -0.081293   8.308743
    13  H    0.319353  -0.008790  -0.002323  -0.000351  -0.000011   0.000140
    14  O   -0.034398  -0.000713  -0.129421   0.001185  -0.000149   0.000026
    15  H   -0.052385  -0.000173   0.456102  -0.002109   0.000061   0.000019
    16  H   -0.031700  -0.000003   0.062408  -0.000329  -0.000026   0.000005
    17  C    0.199017   0.039661   0.148933   0.004753  -0.073968   0.096707
    18  C    0.250567  -0.016821  -0.090479  -0.005654  -0.009984  -0.012311
    19  H    0.013666  -0.000586  -0.001294  -0.000182  -0.001582   0.001030
    20  H    0.013682  -0.000394   0.001811   0.000040   0.000797  -0.004063
    21  C   -0.218284   0.000818   0.088160   0.005162   0.005157   0.000856
    22  O   -0.052167  -0.001737  -0.008781   0.000041  -0.000152   0.001053
    23  O   -0.026907   0.000475   0.011863  -0.000688  -0.000031   0.000059
    24  O   -0.003222  -0.000075  -0.011069   0.000268   0.000148  -0.000133
    25  O   -0.044431   0.003141  -0.004643  -0.000001  -0.001272  -0.026636
    26  H   -0.016936  -0.002359  -0.000645   0.000000  -0.000193  -0.001911
    27  H    0.025009  -0.000645   0.002426   0.000001   0.001238   0.064695
    28  O   -0.001504  -0.000001   0.001368  -0.000005   0.000000   0.000000
    29  H    0.000984   0.000000  -0.001262   0.000007   0.000000   0.000000
    30  H   -0.000037   0.000000   0.000412   0.000000   0.000000   0.000000
    31  O    0.000094   0.000001  -0.006090  -0.000073   0.000001  -0.000001
    32  H   -0.000681   0.000000   0.000275   0.000063  -0.000002   0.000001
    33  H    0.000520  -0.000001   0.006157  -0.000173   0.000000  -0.000001
    34  O    0.007877  -0.000264   0.000446  -0.000136  -0.000538   0.000188
    35  H   -0.008483  -0.000006   0.037858   0.000151   0.000078  -0.000031
    36  H    0.024042  -0.000763  -0.024933  -0.000027   0.000021  -0.000317
    37  O   -0.001626   0.000142   0.000371   0.000000  -0.060195  -0.042258
    38  H    0.002342  -0.000023  -0.000113   0.000001   0.060950   0.007721
    39  H   -0.001749   0.000023  -0.000133   0.000000   0.003959   0.035377
              13         14         15         16         17         18
     1  C    0.060210   0.042181   0.032087   0.004179  -4.242456   1.412370
     2  C   -0.025332   0.066141  -0.006952  -0.035320  -1.294818   0.824192
     3  C   -0.014840   0.153361  -0.008306   0.021664   1.286518  -0.797738
     4  C    0.015589  -0.032238  -0.036571  -0.025250  -0.050100  -0.034208
     5  H    0.000111  -0.000709  -0.000196   0.000047  -0.003455   0.008312
     6  C    0.002397  -0.015358   0.012705   0.001069   0.698000  -0.657740
     7  C    0.319353  -0.034398  -0.052385  -0.031700   0.199017   0.250567
     8  H   -0.008790  -0.000713  -0.000173  -0.000003   0.039661  -0.016821
     9  C   -0.002323  -0.129421   0.456102   0.062408   0.148933  -0.090479
    10  H   -0.000351   0.001185  -0.002109  -0.000329   0.004753  -0.005654
    11  O   -0.000011  -0.000149   0.000061  -0.000026  -0.073968  -0.009984
    12  O    0.000140   0.000026   0.000019   0.000005   0.096707  -0.012311
    13  H    0.590384  -0.000195  -0.003231   0.006220   0.003552  -0.001576
    14  O   -0.000195   8.254972  -0.041414   0.193554  -0.009860   0.004574
    15  H   -0.003231  -0.041414   0.523369  -0.001644  -0.010861  -0.004314
    16  H    0.006220   0.193554  -0.001644   0.587024   0.000728  -0.002212
    17  C    0.003552  -0.009860  -0.010861   0.000728  12.073962  -3.788477
    18  C   -0.001576   0.004574  -0.004314  -0.002212  -3.788477  11.473750
    19  H    0.000023   0.000007   0.000002   0.000000   0.423800  -0.045258
    20  H   -0.000025   0.000028   0.000012  -0.000001   0.415206  -0.025327
    21  C   -0.000767  -0.007890   0.008755   0.002915   0.354078  -3.024180
    22  O    0.000379   0.000203  -0.000006  -0.000012  -0.006682   0.421793
    23  O    0.000582  -0.000147  -0.000291  -0.000311  -0.013921   0.065391
    24  O    0.000007   0.000069  -0.000382  -0.000012   0.067374  -0.179697
    25  O    0.000161   0.000037   0.000051  -0.000003   0.017837  -0.052142
    26  H    0.000058  -0.000004   0.000002   0.000000   0.001997  -0.025318
    27  H    0.000000  -0.000009  -0.000007   0.000000   0.020221  -0.010414
    28  O    0.000002   0.000001  -0.000182   0.000001   0.002834  -0.002266
    29  H   -0.000002   0.000016  -0.000187  -0.000002   0.002880  -0.018702
    30  H    0.000000  -0.000003   0.000044   0.000000   0.000397   0.001192
    31  O    0.000000   0.000018  -0.000512  -0.000012   0.006042  -0.023185
    32  H    0.000000   0.000014  -0.000007   0.000000  -0.002521   0.011273
    33  H    0.000000  -0.000058  -0.000426   0.000019   0.001083  -0.011746
    34  O   -0.004182  -0.014773  -0.000649   0.001687  -0.000728   0.000668
    35  H   -0.000438   0.034253   0.000090  -0.007857   0.002061  -0.000821
    36  H    0.000253  -0.002236   0.000293   0.000985   0.003360   0.000257
    37  O    0.000001   0.000000   0.000000   0.000000   0.000296   0.001794
    38  H    0.000000  -0.000001   0.000000   0.000000   0.002267  -0.000958
    39  H    0.000000   0.000000   0.000000   0.000000  -0.008863  -0.000429
              19         20         21         22         23         24
     1  C   -0.111136  -0.101355   0.150961   0.010346   0.033963  -0.006526
     2  C    0.041122  -0.039757  -0.090473  -0.035427  -0.035809   0.022908
     3  C    0.005405   0.085939  -0.309098   0.012746   0.016687   0.011967
     4  C    0.006480  -0.010859   0.005848  -0.002712   0.024300  -0.020592
     5  H    0.003035  -0.000384   0.000860  -0.000068   0.000164  -0.000471
     6  C    0.012437   0.036518   0.111636   0.039071   0.002753  -0.004350
     7  C    0.013666   0.013682  -0.218284  -0.052167  -0.026907  -0.003222
     8  H   -0.000586  -0.000394   0.000818  -0.001737   0.000475  -0.000075
     9  C   -0.001294   0.001811   0.088160  -0.008781   0.011863  -0.011069
    10  H   -0.000182   0.000040   0.005162   0.000041  -0.000688   0.000268
    11  O   -0.001582   0.000797   0.005157  -0.000152  -0.000031   0.000148
    12  O    0.001030  -0.004063   0.000856   0.001053   0.000059  -0.000133
    13  H    0.000023  -0.000025  -0.000767   0.000379   0.000582   0.000007
    14  O    0.000007   0.000028  -0.007890   0.000203  -0.000147   0.000069
    15  H    0.000002   0.000012   0.008755  -0.000006  -0.000291  -0.000382
    16  H    0.000000  -0.000001   0.002915  -0.000012  -0.000311  -0.000012
    17  C    0.423800   0.415206   0.354078  -0.006682  -0.013921   0.067374
    18  C   -0.045258  -0.025327  -3.024180   0.421793   0.065391  -0.179697
    19  H    0.538850  -0.030493   0.032477   0.000861   0.000005  -0.009074
    20  H   -0.030493   0.548377  -0.014856  -0.002649  -0.000676  -0.001536
    21  C    0.032477  -0.014856   7.959380  -0.050803   0.240809   0.540780
    22  O    0.000861  -0.002649  -0.050803   8.053501   0.018511  -0.010511
    23  O    0.000005  -0.000676   0.240809   0.018511   8.339301  -0.059508
    24  O   -0.009074  -0.001536   0.540780  -0.010511  -0.059508   8.155578
    25  O    0.000139  -0.000752   0.008222  -0.017130   0.000087   0.000129
    26  H    0.000228   0.001257   0.010947   0.049671  -0.000141  -0.000001
    27  H    0.000123   0.004076  -0.009198   0.000081   0.000034  -0.000012
    28  O   -0.000001  -0.000002   0.015803   0.000375  -0.022762  -0.000854
    29  H    0.000004  -0.000003   0.029489  -0.000556   0.040995  -0.001602
    30  H    0.000000   0.000000  -0.004738   0.000037   0.000005   0.001857
    31  O    0.000083  -0.000025   0.033923   0.000527  -0.040591  -0.050858
    32  H    0.000043   0.000012   0.000508   0.000103   0.005670   0.069626
    33  H   -0.000022   0.000000   0.001285  -0.000243   0.033139  -0.004396
    34  O   -0.000003   0.000004  -0.000465  -0.000001   0.000067   0.000002
    35  H    0.000000  -0.000001   0.000094  -0.000001  -0.000038   0.000001
    36  H   -0.000001  -0.000007  -0.000004  -0.000017  -0.000005  -0.000001
    37  O    0.000090   0.000279   0.000028   0.000006  -0.000001  -0.000001
    38  H   -0.000008  -0.000061  -0.000042  -0.000001   0.000000   0.000001
    39  H    0.000009  -0.000040   0.000052   0.000003   0.000000   0.000000
              25         26         27         28         29         30
     1  C    0.027184  -0.011250  -0.044409  -0.000021  -0.000280   0.000352
     2  C   -0.013464  -0.012513  -0.010361  -0.003510   0.001488  -0.000227
     3  C    0.023750   0.035460   0.033639   0.001836  -0.000822  -0.000039
     4  C    0.006051  -0.001064  -0.004260   0.001774  -0.001967  -0.000019
     5  H    0.000019   0.000000  -0.000024   0.000002  -0.000001   0.000000
     6  C    0.045532   0.004840  -0.011448  -0.000038   0.000049   0.000033
     7  C   -0.044431  -0.016936   0.025009  -0.001504   0.000984  -0.000037
     8  H    0.003141  -0.002359  -0.000645  -0.000001   0.000000   0.000000
     9  C   -0.004643  -0.000645   0.002426   0.001368  -0.001262   0.000412
    10  H   -0.000001   0.000000   0.000001  -0.000005   0.000007   0.000000
    11  O   -0.001272  -0.000193   0.001238   0.000000   0.000000   0.000000
    12  O   -0.026636  -0.001911   0.064695   0.000000   0.000000   0.000000
    13  H    0.000161   0.000058   0.000000   0.000002  -0.000002   0.000000
    14  O    0.000037  -0.000004  -0.000009   0.000001   0.000016  -0.000003
    15  H    0.000051   0.000002  -0.000007  -0.000182  -0.000187   0.000044
    16  H   -0.000003   0.000000   0.000000   0.000001  -0.000002   0.000000
    17  C    0.017837   0.001997   0.020221   0.002834   0.002880   0.000397
    18  C   -0.052142  -0.025318  -0.010414  -0.002266  -0.018702   0.001192
    19  H    0.000139   0.000228   0.000123  -0.000001   0.000004   0.000000
    20  H   -0.000752   0.001257   0.004076  -0.000002  -0.000003   0.000000
    21  C    0.008222   0.010947  -0.009198   0.015803   0.029489  -0.004738
    22  O   -0.017130   0.049671   0.000081   0.000375  -0.000556   0.000037
    23  O    0.000087  -0.000141   0.000034  -0.022762   0.040995   0.000005
    24  O    0.000129  -0.000001  -0.000012  -0.000854  -0.001602   0.001857
    25  O    8.071356   0.280574   0.277791   0.000001  -0.000002   0.000000
    26  H    0.280574   0.416982  -0.002160  -0.000002   0.000002   0.000000
    27  H    0.277791  -0.002160   0.328597   0.000000   0.000000   0.000000
    28  O    0.000001  -0.000002   0.000000   8.094173   0.264893   0.282922
    29  H   -0.000002   0.000002   0.000000   0.264893   0.382492  -0.006032
    30  H    0.000000   0.000000   0.000000   0.282922  -0.006032   0.405648
    31  O    0.000000   0.000000   0.000000  -0.016093  -0.004109   0.047174
    32  H    0.000000   0.000000   0.000000  -0.003375   0.001093  -0.006471
    33  H    0.000000   0.000000   0.000000   0.002313  -0.001750  -0.008109
    34  O    0.000018  -0.000005   0.000000   0.000000   0.000000   0.000000
    35  H   -0.000004   0.000000   0.000002   0.000000   0.000000   0.000000
    36  H   -0.000003   0.000005   0.000014   0.000000   0.000000   0.000000
    37  O    0.000289  -0.000020  -0.000518   0.000000   0.000000   0.000000
    38  H   -0.000141   0.000003   0.000289   0.000000   0.000000   0.000000
    39  H    0.000314  -0.000004  -0.000603   0.000000   0.000000   0.000000
              31         32         33         34         35         36
     1  C   -0.005662   0.005857  -0.008339   0.005249   0.003150  -0.009241
     2  C    0.003710  -0.004399  -0.008119  -0.032237  -0.003037   0.002675
     3  C   -0.000824   0.000641   0.000737   0.021703  -0.021417   0.017068
     4  C    0.008598  -0.004636   0.008719   0.022250  -0.003409   0.007524
     5  H    0.000013   0.000027   0.000022   0.000048  -0.000017   0.000013
     6  C   -0.000526   0.000023  -0.000609  -0.013030  -0.000113   0.002070
     7  C    0.000094  -0.000681   0.000520   0.007877  -0.008483   0.024042
     8  H    0.000001   0.000000  -0.000001  -0.000264  -0.000006  -0.000763
     9  C   -0.006090   0.000275   0.006157   0.000446   0.037858  -0.024933
    10  H   -0.000073   0.000063  -0.000173  -0.000136   0.000151  -0.000027
    11  O    0.000001  -0.000002   0.000000  -0.000538   0.000078   0.000021
    12  O   -0.000001   0.000001  -0.000001   0.000188  -0.000031  -0.000317
    13  H    0.000000   0.000000   0.000000  -0.004182  -0.000438   0.000253
    14  O    0.000018   0.000014  -0.000058  -0.014773   0.034253  -0.002236
    15  H   -0.000512  -0.000007  -0.000426  -0.000649   0.000090   0.000293
    16  H   -0.000012   0.000000   0.000019   0.001687  -0.007857   0.000985
    17  C    0.006042  -0.002521   0.001083  -0.000728   0.002061   0.003360
    18  C   -0.023185   0.011273  -0.011746   0.000668  -0.000821   0.000257
    19  H    0.000083   0.000043  -0.000022  -0.000003   0.000000  -0.000001
    20  H   -0.000025   0.000012   0.000000   0.000004  -0.000001  -0.000007
    21  C    0.033923   0.000508   0.001285  -0.000465   0.000094  -0.000004
    22  O    0.000527   0.000103  -0.000243  -0.000001  -0.000001  -0.000017
    23  O   -0.040591   0.005670   0.033139   0.000067  -0.000038  -0.000005
    24  O   -0.050858   0.069626  -0.004396   0.000002   0.000001  -0.000001
    25  O    0.000000   0.000000   0.000000   0.000018  -0.000004  -0.000003
    26  H    0.000000   0.000000   0.000000  -0.000005   0.000000   0.000005
    27  H    0.000000   0.000000   0.000000   0.000000   0.000002   0.000014
    28  O   -0.016093  -0.003375   0.002313   0.000000   0.000000   0.000000
    29  H   -0.004109   0.001093  -0.001750   0.000000   0.000000   0.000000
    30  H    0.047174  -0.006471  -0.008109   0.000000   0.000000   0.000000
    31  O    8.028381   0.293136   0.278095   0.000000   0.000000   0.000000
    32  H    0.293136   0.367644  -0.017487   0.000000   0.000000   0.000000
    33  H    0.278095  -0.017487   0.461922   0.000000   0.000000   0.000000
    34  O    0.000000   0.000000   0.000000   8.021668   0.276405   0.283929
    35  H    0.000000   0.000000   0.000000   0.276405   0.376778  -0.002496
    36  H    0.000000   0.000000   0.000000   0.283929  -0.002496   0.424788
    37  O    0.000000   0.000000   0.000000  -0.000006   0.000000   0.000016
    38  H    0.000000   0.000000   0.000000  -0.000007   0.000000   0.000002
    39  H    0.000000   0.000000   0.000000  -0.000001   0.000000   0.000001
              37         38         39
     1  C   -0.016703  -0.012835   0.009788
     2  C   -0.000025  -0.002544   0.008710
     3  C   -0.004910   0.003301  -0.015791
     4  C    0.000968  -0.002110   0.000776
     5  H    0.000146  -0.000142   0.000000
     6  C    0.050073   0.004384   0.010176
     7  C   -0.001626   0.002342  -0.001749
     8  H    0.000142  -0.000023   0.000023
     9  C    0.000371  -0.000113  -0.000133
    10  H    0.000000   0.000001   0.000000
    11  O   -0.060195   0.060950   0.003959
    12  O   -0.042258   0.007721   0.035377
    13  H    0.000001   0.000000   0.000000
    14  O    0.000000  -0.000001   0.000000
    15  H    0.000000   0.000000   0.000000
    16  H    0.000000   0.000000   0.000000
    17  C    0.000296   0.002267  -0.008863
    18  C    0.001794  -0.000958  -0.000429
    19  H    0.000090  -0.000008   0.000009
    20  H    0.000279  -0.000061  -0.000040
    21  C    0.000028  -0.000042   0.000052
    22  O    0.000006  -0.000001   0.000003
    23  O   -0.000001   0.000000   0.000000
    24  O   -0.000001   0.000001   0.000000
    25  O    0.000289  -0.000141   0.000314
    26  H   -0.000020   0.000003  -0.000004
    27  H   -0.000518   0.000289  -0.000603
    28  O    0.000000   0.000000   0.000000
    29  H    0.000000   0.000000   0.000000
    30  H    0.000000   0.000000   0.000000
    31  O    0.000000   0.000000   0.000000
    32  H    0.000000   0.000000   0.000000
    33  H    0.000000   0.000000   0.000000
    34  O   -0.000006  -0.000007  -0.000001
    35  H    0.000000   0.000000   0.000000
    36  H    0.000016   0.000002   0.000001
    37  O    8.072818   0.279236   0.288063
    38  H    0.279236   0.404445  -0.017677
    39  H    0.288063  -0.017677   0.401914
 Mulliken charges:
               1
     1  C    1.137077
     2  C   -0.202642
     3  C   -0.500185
     4  C   -0.178313
     5  H    0.094576
     6  C    0.204449
     7  C   -0.502042
     8  H    0.131879
     9  C    0.252912
    10  H    0.064836
    11  O   -0.604241
    12  O   -0.657658
    13  H    0.062639
    14  O   -0.461063
    15  H    0.137213
    16  H    0.222190
    17  C   -0.366853
    18  C    0.365824
    19  H    0.119722
    20  H    0.125225
    21  C    0.121795
    22  O   -0.419653
    23  O   -0.633033
    24  O   -0.505830
    25  O   -0.602056
    26  H    0.272497
    27  H    0.335831
    28  O   -0.617684
    29  H    0.312886
    30  H    0.285602
    31  O   -0.551233
    32  H    0.283569
    33  H    0.267467
    34  O   -0.575186
    35  H    0.317249
    36  H    0.272734
    37  O   -0.568351
    38  H    0.271724
    39  H    0.286126
 Sum of Mulliken charges =  -2.00000
 Mulliken charges with hydrogens summed into heavy atoms:
               1
     1  C    1.137077
     2  C   -0.108066
     3  C   -0.368307
     4  C   -0.113477
     6  C    0.204449
     7  C   -0.439403
     9  C    0.390125
    11  O   -0.604241
    12  O   -0.657658
    14  O   -0.238874
    17  C   -0.121906
    18  C    0.365824
    21  C    0.121795
    22  O   -0.419653
    23  O   -0.633033
    24  O   -0.505830
    25  O    0.006272
    28  O   -0.019196
    31  O   -0.000196
    34  O    0.014797
    37  O   -0.010501
 Electronic spatial extent (au):  <R**2>=           7959.7963
 Charge=             -2.0000 electrons
 Dipole moment (field-independent basis, Debye):
    X=              2.3799    Y=              4.8412    Z=              0.6799  Tot=              5.4373
 Quadrupole moment (field-independent basis, Debye-Ang):
   XX=           -304.5191   YY=           -178.0716   ZZ=           -166.4596
   XY=              2.7969   XZ=             -5.0614   YZ=              7.6649
 Traceless Quadrupole moment (field-independent basis, Debye-Ang):
   XX=            -88.1690   YY=             38.2785   ZZ=             49.8905
   XY=              2.7969   XZ=             -5.0614   YZ=              7.6649
 Octapole moment (field-independent basis, Debye-Ang**2):
  XXX=            -32.9250  YYY=            -75.5902  ZZZ=            -14.1147  XYY=            102.7219
  XXY=            131.5888  XXZ=             87.3235  XZZ=             20.2065  YZZ=             49.4891
  YYZ=            -23.5194  XYZ=             23.7247
 Hexadecapole moment (field-independent basis, Debye-Ang**3):
 XXXX=         -10897.5777 YYYY=          -3261.8040 ZZZZ=          -1526.1929 XXXY=           -262.1709
 XXXZ=           -575.1542 YYYX=            260.6276 YYYZ=             17.3954 ZZZX=            122.8053
 ZZZY=            101.6316 XXYY=          -1875.9467 XXZZ=          -1694.6152 YYZZ=           -778.4285
 XXYZ=            -95.5816 YYXZ=             88.7834 ZZXY=            -64.4475
 N-N= 1.870767985905D+03 E-N=-6.648437498101D+03  KE= 1.215542575312D+03
 No NMR shielding tensors so no spin-rotation constants.
 Leave Link  601 at Wed Feb  6 11:20:57 2019, MaxMem=    33554432 cpu:        13.4
 (Enter /global/apps/Gaussian/09.d01/l9999.exe)
 1\1\GINC-C46-2\SP\RB3LYP\6-311+G(2d,2p)\C10H18O11(2-)\GVI022\06-Feb-20
 19\0\\#p rb3lyp/6-311+g(2d,2p) geom=connectivity empiricaldispersion=g
 d3\\Title Card Required\\-2,1\C,0,-1.09064,-0.214478,-0.326192\C,0,-0.
 482136,0.63763,-1.408189\C,0,-1.054054,0.494825,1.006546\C,0,0.269357,
 1.715608,-1.178591\H,0,-0.683873,0.306497,-2.421416\C,0,-2.592367,-0.6
 04079,-0.668215\C,0,-0.306418,1.578271,1.236499\H,0,-1.62742,0.038436,
 1.806101\C,0,0.598202,2.192516,0.202632\H,0,0.716342,2.278853,-1.99441
 2\O,0,-3.03155,-0.25297,-1.786347\O,0,-3.195605,-1.259118,0.232499\H,0
 ,-0.286173,2.028524,2.228665\O,0,0.500283,3.656725,0.199323\H,0,1.6402
 55,1.921979,0.433029\H,0,0.796259,3.944146,1.074067\C,0,-0.310267,-1.5
 85531,-0.24302\C,0,0.955888,-1.491706,0.588832\H,0,-0.060556,-1.90957,
 -1.256727\H,0,-0.966129,-2.320187,0.226563\C,0,2.251138,-1.026225,-0.1
 14891\O,0,0.950402,-1.803922,1.775023\O,0,2.874661,-0.054835,0.392995\
 O,0,2.537063,-1.707623,-1.134579\O,0,-2.011481,-2.228736,2.646387\H,0,
 -1.065003,-2.140885,2.447732\H,0,-2.45287,-1.933169,1.821666\O,0,5.713
 784,-0.65712,0.700961\H,0,4.775916,-0.501884,0.914436\H,0,5.648892,-0.
 653487,-0.271514\O,0,4.662822,-0.163328,-1.939107\H,0,3.995379,-0.8863
 74,-1.843235\H,0,4.271844,0.437491,-1.282388\O,0,-2.241187,4.063283,0.
 881979\H,0,-1.35943,4.048929,0.465679\H,0,-2.460114,3.120987,0.871373\
 O,0,-5.560035,-1.5065,-1.388853\H,0,-4.872885,-0.989566,-1.853276\H,0,
 -5.035914,-1.658559,-0.581046\\Version=EM64L-G09RevD.01\State=1-A\HF=-
 1219.9890445\RMSD=4.791e-09\Dipole=0.9363284,1.9046892,0.2674918\Quadr
 upole=-65.5515018,28.4591459,37.0923558,2.0793939,-3.7630533,5.6986679
 \PG=C01 [X(C10H18O11)]\\@


 ALL SCIENCE IS EITHER PHYSICS, OR STAMP COLLECTING.
   --ERNEST RUTHERFORD, 1871-1937.
 Job cpu time:       0 days  0 hours  0 minutes 30.5 seconds.
 File lengths (MBytes):  RWF=    275 Int=      0 D2E=      0 Chk=     19 Scr=      1
 Normal termination of Gaussian 09 at Wed Feb  6 11:20:58 2019.
