 Entering Gaussian System, Link 0=g09
 Initial command:
 /global/apps/Gaussian/09.d01/l1.exe "/global/work/gvi022/1443122/Gau-53739.inp" -scrdir="/global/work/gvi022/1443122/"
 Entering Link 1 = /global/apps/Gaussian/09.d01/l1.exe PID=     53740.
  
 Copyright (c) 1988,1990,1992,1993,1995,1998,2003,2009,2013,
            Gaussian, Inc.  All Rights Reserved.
  
 This is part of the Gaussian(R) 09 program.  It is based on
 the Gaussian(R) 03 system (copyright 2003, Gaussian, Inc.),
 the Gaussian(R) 98 system (copyright 1998, Gaussian, Inc.),
 the Gaussian(R) 94 system (copyright 1995, Gaussian, Inc.),
 the Gaussian 92(TM) system (copyright 1992, Gaussian, Inc.),
 the Gaussian 90(TM) system (copyright 1990, Gaussian, Inc.),
 the Gaussian 88(TM) system (copyright 1988, Gaussian, Inc.),
 the Gaussian 86(TM) system (copyright 1986, Carnegie Mellon
 University), and the Gaussian 82(TM) system (copyright 1983,
 Carnegie Mellon University). Gaussian is a federally registered
 trademark of Gaussian, Inc.
  
 This software contains proprietary and confidential information,
 including trade secrets, belonging to Gaussian, Inc.
  
 This software is provided under written license and may be
 used, copied, transmitted, or stored only in accord with that
 written license.
  
 The following legend is applicable only to US Government
 contracts under FAR:
  
                    RESTRICTED RIGHTS LEGEND
  
 Use, reproduction and disclosure by the US Government is
 subject to restrictions as set forth in subparagraphs (a)
 and (c) of the Commercial Computer Software - Restricted
 Rights clause in FAR 52.227-19.
  
 Gaussian, Inc.
 340 Quinnipiac St., Bldg. 40, Wallingford CT 06492
  
  
 ---------------------------------------------------------------
 Warning -- This program may not be used in any manner that
 competes with the business of Gaussian, Inc. or will provide
 assistance to any competitor of Gaussian, Inc.  The licensee
 of this program is prohibited from giving any competitor of
 Gaussian, Inc. access to this program.  By using this program,
 the user acknowledges that Gaussian, Inc. is engaged in the
 business of creating and licensing software in the field of
 computational chemistry and represents and warrants to the
 licensee that it is not a competitor of Gaussian, Inc. and that
 it will not use this program in any manner prohibited above.
 ---------------------------------------------------------------
  

 Cite this work as:
 Gaussian 09, Revision D.01,
 M. J. Frisch, G. W. Trucks, H. B. Schlegel, G. E. Scuseria, 
 M. A. Robb, J. R. Cheeseman, G. Scalmani, V. Barone, B. Mennucci, 
 G. A. Petersson, H. Nakatsuji, M. Caricato, X. Li, H. P. Hratchian, 
 A. F. Izmaylov, J. Bloino, G. Zheng, J. L. Sonnenberg, M. Hada, 
 M. Ehara, K. Toyota, R. Fukuda, J. Hasegawa, M. Ishida, T. Nakajima, 
 Y. Honda, O. Kitao, H. Nakai, T. Vreven, J. A. Montgomery, Jr., 
 J. E. Peralta, F. Ogliaro, M. Bearpark, J. J. Heyd, E. Brothers, 
 K. N. Kudin, V. N. Staroverov, T. Keith, R. Kobayashi, J. Normand, 
 K. Raghavachari, A. Rendell, J. C. Burant, S. S. Iyengar, J. Tomasi, 
 M. Cossi, N. Rega, J. M. Millam, M. Klene, J. E. Knox, J. B. Cross, 
 V. Bakken, C. Adamo, J. Jaramillo, R. Gomperts, R. E. Stratmann, 
 O. Yazyev, A. J. Austin, R. Cammi, C. Pomelli, J. W. Ochterski, 
 R. L. Martin, K. Morokuma, V. G. Zakrzewski, G. A. Voth, 
 P. Salvador, J. J. Dannenberg, S. Dapprich, A. D. Daniels, 
 O. Farkas, J. B. Foresman, J. V. Ortiz, J. Cioslowski, 
 and D. J. Fox, Gaussian, Inc., Wallingford CT, 2013.
 
 ******************************************
 Gaussian 09:  EM64L-G09RevD.01 24-Apr-2013
                 6-Feb-2019 
 ******************************************
 %LindaWorkers=cibb100-15,cibb100-16,cibf100-14,cibf100-18
 %NProcShared=20
 Will use up to   20 processors via shared memory.
 %chk=ChorA_PS.chk
 SetLPE:  input flags=""
 SetLPE:    new flags=" -nodelist 'cibb100-15.ibnet cibb100-16.ibnet cibf100-14.ibnet cibf100-18.ibnet'"
 Will use up to    4 processors via Linda.
 ----------------------------------------------------------------------
 #p opt freq=noraman rb3lyp/6-31g(d,p) geom=connectivity empiricaldispe
 rsion=gd3
 ----------------------------------------------------------------------
 1/14=-1,18=20,19=15,26=3,38=1,57=2/1,3;
 2/9=110,12=2,17=6,18=5,40=1/2;
 3/5=1,6=6,7=101,11=2,16=1,25=1,30=1,71=1,74=-5,116=1,124=31/1,2,3;
 4//1;
 5/5=2,38=5/2;
 6/7=2,8=2,9=2,10=2,28=1/1;
 7//1,2,3,16;
 1/14=-1,18=20,19=15,26=3/3(2);
 2/9=110/2;
 99//99;
 2/9=110/2;
 3/5=1,6=6,7=101,11=2,16=1,25=1,30=1,71=1,74=-5,116=1,124=31/1,2,3;
 4/5=5,16=3,69=1/1;
 5/5=2,38=5/2;
 7//1,2,3,16;
 1/14=-1,18=20,19=15,26=3/3(-5);
 2/9=110/2;
 6/7=2,8=2,9=2,10=2,19=2,28=1/1;
 99/9=1/99;
 Leave Link    1 at Wed Feb  6 09:21:11 2019, MaxMem=           0 cpu:         7.9
 (Enter /global/apps/Gaussian/09.d01/l101.exe)
 -------------------
 Title Card Required
 -------------------
 Symbolic Z-matrix:
 Charge = -2 Multiplicity = 1
 C                    -1.28054  -0.18316  -0.32389 
 C                    -0.58789   0.29051  -1.58421 
 C                    -1.33749   0.94904   0.66626 
 C                     0.32869   1.26557  -1.57667 
 H                    -0.84832  -0.24339  -2.49287 
 C                    -2.71584  -0.8014   -0.57282 
 C                    -0.35712   1.85504   0.73821 
 H                    -2.0994    0.90034   1.43435 
 C                     0.70485   2.00179  -0.31943 
 H                     0.8642    1.55245  -2.47902 
 O                    -3.05651  -1.05405  -1.75254 
 O                    -3.38607  -1.01523   0.48436 
 H                    -0.32799   2.57783   1.55087 
 O                     0.84298   3.42575  -0.64585 
 H                     1.68028   1.63952   0.03495 
 H                     1.35485   3.80885   0.07865 
 C                    -0.3697   -1.42357   0.36117 
 C                     0.91501  -0.84946   0.91846 
 H                    -0.18395  -2.1858   -0.39714 
 H                    -0.97957  -1.82835   1.1692 
 C                     2.26561  -1.01511   0.14766 
 O                     0.87048  -0.14154   1.92032 
 O                     3.0521   -0.02546   0.20228 
 O                     2.43663  -2.11306  -0.43952 
 O                    -2.24243  -0.81734   3.13587 
 H                    -1.34345  -0.5391    2.90706 
 H                    -2.6785   -0.91877   2.26126 
 O                     5.75963  -0.74276   0.9332 
 H                     4.84963  -0.39701   0.98717 
 H                     5.70279  -1.17455   0.06109 
 O                     4.77571  -1.36998  -1.71624 
 H                     4.01852  -1.89427  -1.35894 
 H                     4.46846  -0.5044   -1.39531 
 O                    -1.84237   4.38045  -0.04584 
 H                    -0.95009   4.18981  -0.39048 
 H                    -2.17026   3.4813    0.09407 
 O                    -5.47985  -2.37025  -0.93974 
 H                    -4.81047  -2.03644  -1.56818 
 H                    -5.03737  -2.02644  -0.14062 
 
 Add virtual bond connecting atoms C17        and C1         Dist= 3.18D+00.
 Add virtual bond connecting atoms H32        and O24        Dist= 3.48D+00.
 Add virtual bond connecting atoms H27        and O12        Dist= 3.62D+00.
 Add virtual bond connecting atoms H35        and O14        Dist= 3.71D+00.
 Add virtual bond connecting atoms H29        and O23        Dist= 3.77D+00.
 Add virtual bond connecting atoms H30        and O31        Dist= 3.81D+00.
 Add virtual bond connecting atoms H30        and H33        Dist= 3.82D+00.
 Add virtual bond connecting atoms H38        and O11        Dist= 3.81D+00.
 Add virtual bond connecting atoms H39        and O12        Dist= 3.85D+00.
 NAtoms=     39 NQM=       39 NQMF=       0 NMMI=      0 NMMIF=      0
                NMic=       0 NMicF=      0.
                    Isotopes and Nuclear Properties:
 (Nuclear quadrupole moments (NQMom) in fm**2, nuclear magnetic moments (NMagM)
  in nuclear magnetons)

  Atom         1           2           3           4           5           6           7           8           9          10
 IAtWgt=          12          12          12          12           1          12          12           1          12           1
 AtmWgt=  12.0000000  12.0000000  12.0000000  12.0000000   1.0078250  12.0000000  12.0000000   1.0078250  12.0000000   1.0078250
 NucSpn=           0           0           0           0           1           0           0           1           0           1
 AtZEff=   0.0000000   0.0000000   0.0000000   0.0000000   0.0000000   0.0000000   0.0000000   0.0000000   0.0000000   0.0000000
 NQMom=    0.0000000   0.0000000   0.0000000   0.0000000   0.0000000   0.0000000   0.0000000   0.0000000   0.0000000   0.0000000
 NMagM=    0.0000000   0.0000000   0.0000000   0.0000000   2.7928460   0.0000000   0.0000000   2.7928460   0.0000000   2.7928460
 AtZNuc=   6.0000000   6.0000000   6.0000000   6.0000000   1.0000000   6.0000000   6.0000000   1.0000000   6.0000000   1.0000000

  Atom        11          12          13          14          15          16          17          18          19          20
 IAtWgt=          16          16           1          16           1           1          12          12           1           1
 AtmWgt=  15.9949146  15.9949146   1.0078250  15.9949146   1.0078250   1.0078250  12.0000000  12.0000000   1.0078250   1.0078250
 NucSpn=           0           0           1           0           1           1           0           0           1           1
 AtZEff=   0.0000000   0.0000000   0.0000000   0.0000000   0.0000000   0.0000000   0.0000000   0.0000000   0.0000000   0.0000000
 NQMom=    0.0000000   0.0000000   0.0000000   0.0000000   0.0000000   0.0000000   0.0000000   0.0000000   0.0000000   0.0000000
 NMagM=    0.0000000   0.0000000   2.7928460   0.0000000   2.7928460   2.7928460   0.0000000   0.0000000   2.7928460   2.7928460
 AtZNuc=   8.0000000   8.0000000   1.0000000   8.0000000   1.0000000   1.0000000   6.0000000   6.0000000   1.0000000   1.0000000

  Atom        21          22          23          24          25          26          27          28          29          30
 IAtWgt=          12          16          16          16          16           1           1          16           1           1
 AtmWgt=  12.0000000  15.9949146  15.9949146  15.9949146  15.9949146   1.0078250   1.0078250  15.9949146   1.0078250   1.0078250
 NucSpn=           0           0           0           0           0           1           1           0           1           1
 AtZEff=   0.0000000   0.0000000   0.0000000   0.0000000   0.0000000   0.0000000   0.0000000   0.0000000   0.0000000   0.0000000
 NQMom=    0.0000000   0.0000000   0.0000000   0.0000000   0.0000000   0.0000000   0.0000000   0.0000000   0.0000000   0.0000000
 NMagM=    0.0000000   0.0000000   0.0000000   0.0000000   0.0000000   2.7928460   2.7928460   0.0000000   2.7928460   2.7928460
 AtZNuc=   6.0000000   8.0000000   8.0000000   8.0000000   8.0000000   1.0000000   1.0000000   8.0000000   1.0000000   1.0000000

  Atom        31          32          33          34          35          36          37          38          39
 IAtWgt=          16           1           1          16           1           1          16           1           1
 AtmWgt=  15.9949146   1.0078250   1.0078250  15.9949146   1.0078250   1.0078250  15.9949146   1.0078250   1.0078250
 NucSpn=           0           1           1           0           1           1           0           1           1
 AtZEff=   0.0000000   0.0000000   0.0000000   0.0000000   0.0000000   0.0000000   0.0000000   0.0000000   0.0000000
 NQMom=    0.0000000   0.0000000   0.0000000   0.0000000   0.0000000   0.0000000   0.0000000   0.0000000   0.0000000
 NMagM=    0.0000000   2.7928460   2.7928460   0.0000000   2.7928460   2.7928460   0.0000000   2.7928460   2.7928460
 AtZNuc=   8.0000000   1.0000000   1.0000000   8.0000000   1.0000000   1.0000000   8.0000000   1.0000000   1.0000000
 Leave Link  101 at Wed Feb  6 09:21:11 2019, MaxMem=    33554432 cpu:         4.3
 (Enter /global/apps/Gaussian/09.d01/l103.exe)

 GradGradGradGradGradGradGradGradGradGradGradGradGradGradGradGradGradGrad
 Berny optimization.
 Initialization pass.
                           ----------------------------
                           !    Initial Parameters    !
                           ! (Angstroms and Degrees)  !
 --------------------------                            --------------------------
 ! Name  Definition              Value          Derivative Info.                !
 --------------------------------------------------------------------------------
 ! R1    R(1,2)                  1.5141         estimate D2E/DX2                !
 ! R2    R(1,3)                  1.5052         estimate D2E/DX2                !
 ! R3    R(1,6)                  1.5825         estimate D2E/DX2                !
 ! R4    R(1,17)                 1.6845         estimate D2E/DX2                !
 ! R5    R(2,4)                  1.3383         estimate D2E/DX2                !
 ! R6    R(2,5)                  1.0856         estimate D2E/DX2                !
 ! R7    R(3,7)                  1.3368         estimate D2E/DX2                !
 ! R8    R(3,8)                  1.083          estimate D2E/DX2                !
 ! R9    R(4,9)                  1.5047         estimate D2E/DX2                !
 ! R10   R(4,10)                 1.0878         estimate D2E/DX2                !
 ! R11   R(6,11)                 1.2537         estimate D2E/DX2                !
 ! R12   R(6,12)                 1.2699         estimate D2E/DX2                !
 ! R13   R(7,9)                  1.506          estimate D2E/DX2                !
 ! R14   R(7,13)                 1.088          estimate D2E/DX2                !
 ! R15   R(9,14)                 1.4674         estimate D2E/DX2                !
 ! R16   R(9,15)                 1.0992         estimate D2E/DX2                !
 ! R17   R(11,38)                2.0188         estimate D2E/DX2                !
 ! R18   R(12,27)                1.915          estimate D2E/DX2                !
 ! R19   R(12,39)                2.0347         estimate D2E/DX2                !
 ! R20   R(14,16)                0.9663         estimate D2E/DX2                !
 ! R21   R(14,35)                1.9657         estimate D2E/DX2                !
 ! R22   R(17,18)                1.5135         estimate D2E/DX2                !
 ! R23   R(17,19)                1.0911         estimate D2E/DX2                !
 ! R24   R(17,20)                1.0903         estimate D2E/DX2                !
 ! R25   R(18,21)                1.5639         estimate D2E/DX2                !
 ! R26   R(18,22)                1.2275         estimate D2E/DX2                !
 ! R27   R(21,23)                1.2653         estimate D2E/DX2                !
 ! R28   R(21,24)                1.2568         estimate D2E/DX2                !
 ! R29   R(23,29)                1.9963         estimate D2E/DX2                !
 ! R30   R(24,32)                1.8427         estimate D2E/DX2                !
 ! R31   R(25,26)                0.9685         estimate D2E/DX2                !
 ! R32   R(25,27)                0.9825         estimate D2E/DX2                !
 ! R33   R(28,29)                0.975          estimate D2E/DX2                !
 ! R34   R(28,30)                0.9748         estimate D2E/DX2                !
 ! R35   R(30,31)                2.0141         estimate D2E/DX2                !
 ! R36   R(30,33)                2.0233         estimate D2E/DX2                !
 ! R37   R(31,32)                0.9879         estimate D2E/DX2                !
 ! R38   R(31,33)                0.9729         estimate D2E/DX2                !
 ! R39   R(34,35)                0.9753         estimate D2E/DX2                !
 ! R40   R(34,36)                0.9672         estimate D2E/DX2                !
 ! R41   R(37,38)                0.977          estimate D2E/DX2                !
 ! R42   R(37,39)                0.976          estimate D2E/DX2                !
 ! A1    A(2,1,3)              109.2422         estimate D2E/DX2                !
 ! A2    A(2,1,6)              113.9659         estimate D2E/DX2                !
 ! A3    A(2,1,17)             108.755          estimate D2E/DX2                !
 ! A4    A(3,1,6)              111.2864         estimate D2E/DX2                !
 ! A5    A(3,1,17)             107.8683         estimate D2E/DX2                !
 ! A6    A(6,1,17)             105.469          estimate D2E/DX2                !
 ! A7    A(1,2,4)              122.4502         estimate D2E/DX2                !
 ! A8    A(1,2,5)              115.6655         estimate D2E/DX2                !
 ! A9    A(4,2,5)              121.8264         estimate D2E/DX2                !
 ! A10   A(1,3,7)              121.1608         estimate D2E/DX2                !
 ! A11   A(1,3,8)              117.3458         estimate D2E/DX2                !
 ! A12   A(7,3,8)              120.5467         estimate D2E/DX2                !
 ! A13   A(2,4,9)              122.1689         estimate D2E/DX2                !
 ! A14   A(2,4,10)             121.6449         estimate D2E/DX2                !
 ! A15   A(9,4,10)             116.167          estimate D2E/DX2                !
 ! A16   A(1,6,11)             118.244          estimate D2E/DX2                !
 ! A17   A(1,6,12)             114.4271         estimate D2E/DX2                !
 ! A18   A(11,6,12)            127.3051         estimate D2E/DX2                !
 ! A19   A(3,7,9)              123.0514         estimate D2E/DX2                !
 ! A20   A(3,7,13)             120.6686         estimate D2E/DX2                !
 ! A21   A(9,7,13)             116.1652         estimate D2E/DX2                !
 ! A22   A(4,9,7)              111.2739         estimate D2E/DX2                !
 ! A23   A(4,9,14)             108.2075         estimate D2E/DX2                !
 ! A24   A(4,9,15)             109.2659         estimate D2E/DX2                !
 ! A25   A(7,9,14)             108.4916         estimate D2E/DX2                !
 ! A26   A(7,9,15)             111.5448         estimate D2E/DX2                !
 ! A27   A(14,9,15)            107.9389         estimate D2E/DX2                !
 ! A28   A(6,11,38)            104.3726         estimate D2E/DX2                !
 ! A29   A(6,12,27)            124.6784         estimate D2E/DX2                !
 ! A30   A(6,12,39)            104.8518         estimate D2E/DX2                !
 ! A31   A(27,12,39)           127.5827         estimate D2E/DX2                !
 ! A32   A(9,14,16)            105.5341         estimate D2E/DX2                !
 ! A33   A(9,14,35)            105.214          estimate D2E/DX2                !
 ! A34   A(16,14,35)           103.397          estimate D2E/DX2                !
 ! A35   A(1,17,18)            109.2327         estimate D2E/DX2                !
 ! A36   A(1,17,19)            108.8941         estimate D2E/DX2                !
 ! A37   A(1,17,20)            105.8029         estimate D2E/DX2                !
 ! A38   A(18,17,19)           112.11           estimate D2E/DX2                !
 ! A39   A(18,17,20)           110.0453         estimate D2E/DX2                !
 ! A40   A(19,17,20)           110.5444         estimate D2E/DX2                !
 ! A41   A(17,18,21)           120.7582         estimate D2E/DX2                !
 ! A42   A(17,18,22)           119.2407         estimate D2E/DX2                !
 ! A43   A(21,18,22)           119.6489         estimate D2E/DX2                !
 ! A44   A(18,21,23)           115.6388         estimate D2E/DX2                !
 ! A45   A(18,21,24)           116.1251         estimate D2E/DX2                !
 ! A46   A(23,21,24)           128.2347         estimate D2E/DX2                !
 ! A47   A(21,23,29)           115.5372         estimate D2E/DX2                !
 ! A48   A(21,24,32)           104.2528         estimate D2E/DX2                !
 ! A49   A(26,25,27)           103.3744         estimate D2E/DX2                !
 ! A50   A(29,28,30)            98.7532         estimate D2E/DX2                !
 ! A51   A(23,29,28)           152.2116         estimate D2E/DX2                !
 ! A52   A(28,30,31)           149.2379         estimate D2E/DX2                !
 ! A53   A(28,30,33)           122.1975         estimate D2E/DX2                !
 ! A54   A(30,31,32)            94.8839         estimate D2E/DX2                !
 ! A55   A(32,31,33)            96.3619         estimate D2E/DX2                !
 ! A56   A(24,32,31)           154.3527         estimate D2E/DX2                !
 ! A57   A(35,34,36)           100.3433         estimate D2E/DX2                !
 ! A58   A(14,35,34)           163.0115         estimate D2E/DX2                !
 ! A59   A(38,37,39)            95.4914         estimate D2E/DX2                !
 ! A60   A(11,38,37)           145.1161         estimate D2E/DX2                !
 ! A61   A(12,39,37)           142.6077         estimate D2E/DX2                !
 ! A62   L(12,27,25,3,-1)      174.496          estimate D2E/DX2                !
 ! A63   L(12,27,25,3,-2)      181.3601         estimate D2E/DX2                !
 ! D1    D(3,1,2,4)             28.1182         estimate D2E/DX2                !
 ! D2    D(3,1,2,5)           -154.6021         estimate D2E/DX2                !
 ! D3    D(6,1,2,4)            153.2846         estimate D2E/DX2                !
 ! D4    D(6,1,2,5)            -29.4357         estimate D2E/DX2                !
 ! D5    D(17,1,2,4)           -89.3808         estimate D2E/DX2                !
 ! D6    D(17,1,2,5)            87.8989         estimate D2E/DX2                !
 ! D7    D(2,1,3,7)            -33.5616         estimate D2E/DX2                !
 ! D8    D(2,1,3,8)            157.5156         estimate D2E/DX2                !
 ! D9    D(6,1,3,7)           -160.2689         estimate D2E/DX2                !
 ! D10   D(6,1,3,8)             30.8083         estimate D2E/DX2                !
 ! D11   D(17,1,3,7)            84.4946         estimate D2E/DX2                !
 ! D12   D(17,1,3,8)           -84.4282         estimate D2E/DX2                !
 ! D13   D(2,1,6,11)            11.7364         estimate D2E/DX2                !
 ! D14   D(2,1,6,12)          -169.9077         estimate D2E/DX2                !
 ! D15   D(3,1,6,11)           135.8094         estimate D2E/DX2                !
 ! D16   D(3,1,6,12)           -45.8347         estimate D2E/DX2                !
 ! D17   D(17,1,6,11)         -107.4793         estimate D2E/DX2                !
 ! D18   D(17,1,6,12)           70.8766         estimate D2E/DX2                !
 ! D19   D(2,1,17,18)           69.9582         estimate D2E/DX2                !
 ! D20   D(2,1,17,19)          -52.7761         estimate D2E/DX2                !
 ! D21   D(2,1,17,20)         -171.6157         estimate D2E/DX2                !
 ! D22   D(3,1,17,18)          -48.4107         estimate D2E/DX2                !
 ! D23   D(3,1,17,19)         -171.1449         estimate D2E/DX2                !
 ! D24   D(3,1,17,20)           70.0155         estimate D2E/DX2                !
 ! D25   D(6,1,17,18)         -167.422          estimate D2E/DX2                !
 ! D26   D(6,1,17,19)           69.8438         estimate D2E/DX2                !
 ! D27   D(6,1,17,20)          -48.9958         estimate D2E/DX2                !
 ! D28   D(1,2,4,9)             -2.3018         estimate D2E/DX2                !
 ! D29   D(1,2,4,10)           176.0374         estimate D2E/DX2                !
 ! D30   D(5,2,4,9)           -179.4159         estimate D2E/DX2                !
 ! D31   D(5,2,4,10)            -1.0767         estimate D2E/DX2                !
 ! D32   D(1,3,7,9)             13.4465         estimate D2E/DX2                !
 ! D33   D(1,3,7,13)          -170.6007         estimate D2E/DX2                !
 ! D34   D(8,3,7,9)           -177.9831         estimate D2E/DX2                !
 ! D35   D(8,3,7,13)            -2.0302         estimate D2E/DX2                !
 ! D36   D(2,4,9,7)            -19.5757         estimate D2E/DX2                !
 ! D37   D(2,4,9,14)          -138.6779         estimate D2E/DX2                !
 ! D38   D(2,4,9,15)           104.0355         estimate D2E/DX2                !
 ! D39   D(10,4,9,7)           161.9996         estimate D2E/DX2                !
 ! D40   D(10,4,9,14)           42.8974         estimate D2E/DX2                !
 ! D41   D(10,4,9,15)          -74.3892         estimate D2E/DX2                !
 ! D42   D(1,6,11,38)          172.6166         estimate D2E/DX2                !
 ! D43   D(12,6,11,38)          -5.5014         estimate D2E/DX2                !
 ! D44   D(1,6,12,27)          -10.5704         estimate D2E/DX2                !
 ! D45   D(1,6,12,39)         -172.515          estimate D2E/DX2                !
 ! D46   D(11,6,12,27)         167.6087         estimate D2E/DX2                !
 ! D47   D(11,6,12,39)           5.6641         estimate D2E/DX2                !
 ! D48   D(3,7,9,4)             14.0287         estimate D2E/DX2                !
 ! D49   D(3,7,9,14)           132.9611         estimate D2E/DX2                !
 ! D50   D(3,7,9,15)          -108.2748         estimate D2E/DX2                !
 ! D51   D(13,7,9,4)          -162.093          estimate D2E/DX2                !
 ! D52   D(13,7,9,14)          -43.1607         estimate D2E/DX2                !
 ! D53   D(13,7,9,15)           75.6035         estimate D2E/DX2                !
 ! D54   D(4,9,14,16)         -161.7523         estimate D2E/DX2                !
 ! D55   D(4,9,14,35)           89.2937         estimate D2E/DX2                !
 ! D56   D(7,9,14,16)           77.4006         estimate D2E/DX2                !
 ! D57   D(7,9,14,35)          -31.5535         estimate D2E/DX2                !
 ! D58   D(15,9,14,16)         -43.6154         estimate D2E/DX2                !
 ! D59   D(15,9,14,35)        -152.5695         estimate D2E/DX2                !
 ! D60   D(6,11,38,37)           1.1336         estimate D2E/DX2                !
 ! D61   D(6,12,25,26)           2.0901         estimate D2E/DX2                !
 ! D62   D(39,12,25,26)        160.193          estimate D2E/DX2                !
 ! D63   D(6,12,39,37)          -1.8334         estimate D2E/DX2                !
 ! D64   D(27,12,39,37)       -163.0721         estimate D2E/DX2                !
 ! D65   D(9,14,35,34)          36.7104         estimate D2E/DX2                !
 ! D66   D(16,14,35,34)        -73.7815         estimate D2E/DX2                !
 ! D67   D(1,17,18,21)        -102.5329         estimate D2E/DX2                !
 ! D68   D(1,17,18,22)          70.6292         estimate D2E/DX2                !
 ! D69   D(19,17,18,21)         18.2589         estimate D2E/DX2                !
 ! D70   D(19,17,18,22)       -168.579          estimate D2E/DX2                !
 ! D71   D(20,17,18,21)        141.7251         estimate D2E/DX2                !
 ! D72   D(20,17,18,22)        -45.1128         estimate D2E/DX2                !
 ! D73   D(17,18,21,23)        143.0257         estimate D2E/DX2                !
 ! D74   D(17,18,21,24)        -37.3781         estimate D2E/DX2                !
 ! D75   D(22,18,21,23)        -30.1087         estimate D2E/DX2                !
 ! D76   D(22,18,21,24)        149.4875         estimate D2E/DX2                !
 ! D77   D(18,21,23,29)        120.841          estimate D2E/DX2                !
 ! D78   D(24,21,23,29)        -58.6975         estimate D2E/DX2                !
 ! D79   D(18,21,24,32)        174.5903         estimate D2E/DX2                !
 ! D80   D(23,21,24,32)         -5.8732         estimate D2E/DX2                !
 ! D81   D(21,23,29,28)         78.9025         estimate D2E/DX2                !
 ! D82   D(21,24,32,31)        -10.6186         estimate D2E/DX2                !
 ! D83   D(30,28,29,23)         -7.8705         estimate D2E/DX2                !
 ! D84   D(29,28,30,31)         19.2893         estimate D2E/DX2                !
 ! D85   D(29,28,30,33)         29.4752         estimate D2E/DX2                !
 ! D86   D(28,30,31,32)        -76.7318         estimate D2E/DX2                !
 ! D87   D(30,31,32,24)         75.1699         estimate D2E/DX2                !
 ! D88   D(33,31,32,24)         -1.8385         estimate D2E/DX2                !
 ! D89   D(36,34,35,14)        -44.4946         estimate D2E/DX2                !
 ! D90   D(39,37,38,11)          1.7248         estimate D2E/DX2                !
 ! D91   D(38,37,39,12)         -1.3051         estimate D2E/DX2                !
 --------------------------------------------------------------------------------
 Trust Radius=3.00D-01 FncErr=1.00D-07 GrdErr=1.00D-06
 Number of steps in this run=    206 maximum allowed number of steps=    234.
 GradGradGradGradGradGradGradGradGradGradGradGradGradGradGradGradGradGrad

 Leave Link  103 at Wed Feb  6 09:21:12 2019, MaxMem=    33554432 cpu:         0.5
 (Enter /global/apps/Gaussian/09.d01/l202.exe)
                          Input orientation:                          
 ---------------------------------------------------------------------
 Center     Atomic      Atomic             Coordinates (Angstroms)
 Number     Number       Type             X           Y           Z
 ---------------------------------------------------------------------
      1          6           0       -1.280538   -0.183158   -0.323888
      2          6           0       -0.587893    0.290512   -1.584205
      3          6           0       -1.337491    0.949039    0.666261
      4          6           0        0.328694    1.265569   -1.576666
      5          1           0       -0.848321   -0.243393   -2.492870
      6          6           0       -2.715838   -0.801397   -0.572819
      7          6           0       -0.357124    1.855040    0.738205
      8          1           0       -2.099397    0.900340    1.434350
      9          6           0        0.704852    2.001794   -0.319430
     10          1           0        0.864199    1.552454   -2.479016
     11          8           0       -3.056505   -1.054051   -1.752544
     12          8           0       -3.386069   -1.015231    0.484359
     13          1           0       -0.327992    2.577828    1.550872
     14          8           0        0.842975    3.425747   -0.645852
     15          1           0        1.680278    1.639523    0.034954
     16          1           0        1.354851    3.808852    0.078647
     17          6           0       -0.369700   -1.423565    0.361171
     18          6           0        0.915014   -0.849456    0.918456
     19          1           0       -0.183948   -2.185800   -0.397144
     20          1           0       -0.979572   -1.828353    1.169197
     21          6           0        2.265607   -1.015110    0.147657
     22          8           0        0.870482   -0.141542    1.920319
     23          8           0        3.052102   -0.025460    0.202275
     24          8           0        2.436626   -2.113062   -0.439518
     25          8           0       -2.242433   -0.817338    3.135873
     26          1           0       -1.343454   -0.539103    2.907058
     27          1           0       -2.678499   -0.918768    2.261255
     28          8           0        5.759627   -0.742759    0.933204
     29          1           0        4.849634   -0.397013    0.987166
     30          1           0        5.702790   -1.174548    0.061093
     31          8           0        4.775711   -1.369976   -1.716244
     32          1           0        4.018523   -1.894274   -1.358944
     33          1           0        4.468460   -0.504400   -1.395309
     34          8           0       -1.842373    4.380447   -0.045842
     35          1           0       -0.950087    4.189812   -0.390480
     36          1           0       -2.170261    3.481303    0.094069
     37          8           0       -5.479850   -2.370250   -0.939742
     38          1           0       -4.810471   -2.036440   -1.568180
     39          1           0       -5.037375   -2.026438   -0.140621
 ---------------------------------------------------------------------
                    Distance matrix (angstroms):
                    1          2          3          4          5
     1  C    0.000000
     2  C    1.514107   0.000000
     3  C    1.505161   2.461738   0.000000
     4  C    2.501578   1.338254   2.811954   0.000000
     5  H    2.212447   1.085610   3.411933   2.121735   0.000000
     6  C    1.582489   2.596790   2.549350   3.814346   2.735980
     7  C    2.476890   2.809731   1.336837   2.485246   3.883882
     8  H    2.221688   3.430482   1.082974   3.885259   4.277426
     9  C    2.952255   2.489846   2.500209   1.504714   3.489563
    10  H    3.500975   2.121734   3.886427   1.087798   2.481528
    11  O    2.439994   2.816067   3.580223   4.107450   2.466034
    12  O    2.403928   3.716680   2.843961   4.821757   3.987454
    13  H    3.470607   3.889482   2.110587   3.454671   4.958012
    14  O    4.199662   3.571777   3.551078   2.407752   4.442358
    15  H    3.495335   3.096144   3.159469   2.136338   4.040926
    16  H    4.800360   4.349488   3.971464   3.203334   5.280848
    17  C    1.684500   2.601952   2.580494   3.387390   3.125289
    18  C    2.609180   3.133938   2.893435   3.323061   3.887648
    19  H    2.284393   2.775681   3.505525   3.683208   2.933667
    20  H    2.241997   3.496316   2.845164   4.338626   3.992500
    21  C    3.672825   3.584195   4.136320   3.453465   4.155054
    22  O    3.108872   3.820369   2.763544   3.808202   4.737182
    23  O    4.367320   4.067052   4.520338   3.499763   4.746009
    24  O    4.189894   4.029292   4.984292   4.141453   4.301487
    25  O    3.646556   5.122887   3.168279   5.758231   5.827153
    26  H    3.251102   4.629317   2.689939   5.114362   5.430637
    27  H    3.029584   4.540986   2.798394   5.342675   5.138812
    28  O    7.173378   6.906230   7.300858   6.310932   7.460049
    29  H    6.272448   6.054035   6.339980   5.456768   6.678394
    30  H    7.063847   6.665291   7.378442   6.125139   7.092731
    31  O    6.326559   5.616307   6.958836   5.171222   5.788098
    32  H    5.663860   5.103244   6.393182   4.862803   5.262829
    33  H    5.856801   5.121940   6.330215   4.505923   5.435156
    34  O    4.606458   4.546191   3.540700   4.093827   5.325033
    35  H    4.385943   4.093984   3.430655   3.404925   4.907515
    36  H    3.794018   3.937212   2.726402   3.734382   4.723679
    37  O    4.774607   5.605910   5.545815   6.882153   5.327925
    38  H    4.176523   4.821320   5.095822   6.108547   4.446201
    39  H    4.188686   5.220161   4.815980   6.457107   5.124500
                    6          7          8          9         10
     6  C    0.000000
     7  C    3.786684   0.000000
     8  H    2.702709   2.105133   0.000000
     9  C    4.429809   1.505962   3.486081   0.000000
    10  H    4.689442   3.454519   4.952029   2.211585   0.000000
    11  O    1.253650   4.685435   3.859015   5.053693   4.763775
    12  O    1.269866   4.180598   2.495480   5.146275   5.782679
    13  H    4.650917   1.087979   2.442421   2.212829   4.325819
    14  O    5.526231   2.413083   4.400281   1.467403   2.621100
    15  H    5.064910   2.166106   4.097639   1.099220   2.644544
    16  H    6.184603   2.680160   4.714785   1.961230   3.445825
    17  C    2.600729   3.300237   3.089353   3.653897   4.294864
    18  C    3.925468   2.994182   3.523437   3.115470   4.161078
    19  H    2.891003   4.200880   4.067871   4.281582   4.405377
    20  H    2.665310   3.760396   2.961432   4.441095   5.304602
    21  C    5.037812   3.932585   4.937387   3.428678   3.931379
    22  O    4.417334   2.625024   3.184630   3.104480   4.714214
    23  O    5.871284   3.930181   5.377086   3.145078   3.803427
    24  O    5.318470   4.993787   5.759121   4.466039   4.479742
    25  O    3.738818   4.055220   2.421995   5.345382   6.840618
    26  H    3.749904   3.377675   2.193699   4.589329   6.185316
    27  H    2.836749   3.924599   2.080453   5.161074   6.413097
    28  O    8.608429   6.648400   8.044575   5.886630   6.393470
    29  H    7.735208   5.678385   7.083229   4.963939   5.630145
    30  H    8.450703   6.808777   8.189329   5.934082   6.107426
    31  O    7.599606   6.539957   7.896055   5.467341   4.941897
    32  H    6.867604   6.132021   7.282946   5.219229   4.804608
    33  H    7.237322   5.779715   7.288142   4.647932   4.289029
    34  O    5.281302   3.032882   3.790537   3.495883   4.609058
    35  H    5.297480   2.660206   3.933388   2.744320   3.822208
    36  H    4.368514   2.519347   2.909080   3.259786   4.421445
    37  O    3.199327   6.849153   5.268827   7.599348   7.616031
    38  H    2.627463   6.347860   4.998978   6.948777   6.775814
    39  H    2.660273   6.143530   4.436020   7.016537   7.287327
                   11         12         13         14         15
    11  O    0.000000
    12  O    2.261383   0.000000
    13  H    5.616750   4.837288   0.000000
    14  O    6.041465   6.235742   2.629777   0.000000
    15  H    5.734771   5.737382   2.685437   2.086904   0.000000
    16  H    6.816241   6.775891   2.552416   0.966274   2.194037
    17  C    3.438496   3.046374   4.174718   5.099069   3.700180
    18  C    4.790518   4.326111   3.700174   4.552978   2.749767
    19  H    3.371876   3.521485   5.148560   5.710156   4.277282
    20  H    3.667392   2.630855   4.470421   5.849927   4.515249
    21  C    5.651297   5.661697   4.648115   4.730195   2.720733
    22  O    5.453790   4.576411   2.994629   4.394490   2.717087
    23  O    6.495721   6.519913   4.474467   4.184542   2.163808
    24  O    5.746306   5.996879   5.797345   5.767209   3.857341
    25  O    4.961388   2.894407   4.207667   6.467222   5.571313
    26  H    4.991153   3.204441   3.547628   5.755317   4.705141
    27  H    4.033829   1.915025   4.272670   6.302925   5.522699
    28  O    9.221406   9.160756   6.961819   6.636515   4.808660
    29  H    8.393137   8.274165   5.997938   5.773522   3.885744
    30  H    8.945896   9.100104   7.257417   6.729063   4.909204
    31  O    7.838669   8.460683   7.232357   6.293736   4.658914
    32  H    7.135609   7.681046   6.881782   6.236604   4.460724
    33  H    7.553465   8.092449   6.417637   5.399248   3.796843
    34  O    5.824149   5.637149   2.844693   2.912483   4.464108
    35  H    5.812944   5.813074   2.598912   1.965727   3.688331
    36  H    4.976429   4.674327   2.516445   3.103250   4.268758
    37  O    2.875001   2.871943   7.564937   8.582428   8.264124
    38  H    2.018781   2.699019   7.149306   7.915025   7.629716
    39  H    2.732705   2.034687   6.799905   8.034930   7.654865
                   16         17         18         19         20
    16  H    0.000000
    17  C    5.516528   0.000000
    18  C    4.753795   1.513492   0.000000
    19  H    6.207264   1.091122   2.173554   0.000000
    20  H    6.198138   1.090277   2.147223   1.792822   0.000000
    21  C    4.909669   2.675307   1.563865   2.769051   3.498013
    22  O    4.385428   2.369088   1.227540   3.265187   2.613851
    23  O    4.194984   3.699821   2.399798   3.936800   4.521035
    24  O    6.042168   2.998662   2.399187   2.621926   3.786744
    25  O    6.609744   3.402001   3.858425   4.311874   2.546524
    26  H    5.846834   2.865661   3.025150   3.869602   2.194251
    27  H    6.586507   3.032440   3.836828   3.859435   2.215014
    28  O    6.391360   6.193494   4.845810   6.259255   6.830154
    29  H    5.543304   5.356036   3.961144   5.518426   6.005124
    30  H    6.613559   6.084997   4.874788   5.990517   6.805095
    31  O    6.460973   5.549214   4.702932   5.196519   6.454391
    32  H    6.456583   4.736757   3.988730   4.320973   5.601499
    33  H    5.520077   5.228564   4.254357   5.046617   6.165273
    34  O    3.250301   6.001748   5.990404   6.781547   6.385135
    35  H    2.382845   5.693139   5.530474   6.421483   6.217055
    36  H    3.540331   5.231739   5.380893   6.025179   5.546719
    37  O    9.269927   5.357445   6.830813   5.326820   4.999378
    38  H    8.653940   4.880416   6.354012   4.774762   4.712995
    39  H    8.657901   4.733122   6.159372   4.862813   4.268563
                   21         22         23         24         25
    21  C    0.000000
    22  O    2.419055   0.000000
    23  O    1.265292   2.779319   0.000000
    24  O    1.256790   3.450874   2.269095   0.000000
    25  O    5.412114   3.409474   6.104520   6.029587   0.000000
    26  H    4.567953   2.456262   5.186578   5.288282   0.968470
    27  H    5.377803   3.649052   6.154444   5.906354   0.982547
    28  O    3.591578   5.023903   2.894731   3.847653   8.300017
    29  H    2.786398   4.095081   1.996303   3.286770   7.422333
    30  H    3.441968   5.279680   2.892487   3.435003   8.526924
    31  O    3.146534   5.475806   2.908482   2.766500   8.550017
    32  H    2.472952   4.871940   2.619893   1.842718   7.782207
    33  H    2.737541   4.906170   2.188088   2.762187   8.103433
    34  O    6.784171   5.627944   6.590103   7.786557   6.107399
    35  H    6.141783   5.235923   5.842721   7.155309   6.259143
    36  H    6.316449   5.070139   6.291436   7.266708   5.266507
    37  O    7.937943   7.312579   8.921684   7.936433   5.431670
    38  H    7.352421   6.930620   8.306540   7.334859   5.496285
    39  H    7.378308   6.534759   8.340331   7.480477   4.473146
                   26         27         28         29         30
    26  H    0.000000
    27  H    1.530866   0.000000
    28  O    7.375048   8.543809   0.000000
    29  H    6.485408   7.652994   0.974956   0.000000
    30  H    7.625802   8.669033   0.974808   1.479881   0.000000
    31  O    7.714237   8.461048   2.895007   2.874117   2.014099
    32  H    6.984702   7.675126   3.100221   2.904612   2.317599
    33  H    7.231176   8.038730   2.673182   2.415163   2.023308
    34  O    5.759385   5.839819   9.219337   8.286989   9.370106
    35  H    5.778506   6.009717   8.432239   7.521545   8.558098
    36  H    4.975960   4.931088   9.023856   8.069565   9.146746
    37  O    5.938076   4.494524  11.510104  10.691346  11.290829
    38  H    5.855765   4.523170  10.938807  10.125964  10.673614
    39  H    5.014535   3.544042  10.925941  10.083644  10.775785
                   31         32         33         34         35
    31  O    0.000000
    32  H    0.987869   0.000000
    33  H    0.972946   1.461340   0.000000
    34  O    8.925057   8.685992   8.093788   0.000000
    35  H    8.090343   7.914614   7.239196   0.975342   0.000000
    36  H    8.663641   8.325210   7.885220   0.967236   1.491844
    37  O   10.333443   9.519526  10.132019   7.720247   7.990923
    38  H    9.610462   8.832617   9.406146   7.232120   7.419957
    39  H    9.960431   9.138439   9.708334   7.159972   7.443797
                   36         37         38         39
    36  H    0.000000
    37  O    6.801678   0.000000
    38  H    6.338712   0.976950   0.000000
    39  H    6.213745   0.976005   1.445514   0.000000
 Stoichiometry    C10H18O11(2-)
 Framework group  C1[X(C10H18O11)]
 Deg. of freedom   111
 Full point group                 C1      NOp   1
 Largest Abelian subgroup         C1      NOp   1
 Largest concise Abelian subgroup C1      NOp   1
                         Standard orientation:                         
 ---------------------------------------------------------------------
 Center     Atomic      Atomic             Coordinates (Angstroms)
 Number     Number       Type             X           Y           Z
 ---------------------------------------------------------------------
      1          6           0       -1.284530   -0.192600   -0.329124
      2          6           0       -0.589019    0.291102   -1.584041
      3          6           0       -1.342580    0.931279    0.670393
      4          6           0        0.328300    1.265341   -1.566490
      5          1           0       -0.848051   -0.234942   -2.497676
      6          6           0       -2.719807   -0.807599   -0.586085
      7          6           0       -0.361662    1.835873    0.751892
      8          1           0       -2.106047    0.876724    1.436535
      9          6           0        0.702526    1.990678   -0.302367
     10          1           0        0.865817    1.559380   -2.465335
     11          8           0       -3.058324   -1.050061   -1.768564
     12          8           0       -3.392301   -1.029784    0.467929
     13          1           0       -0.333589    2.551782    1.570662
     14          8           0        0.842391    3.417215   -0.616533
     15          1           0        1.676967    1.624676    0.050889
     16          1           0        1.353121    3.793816    0.112173
     17          6           0       -0.376007   -1.439436    0.347285
     18          6           0        0.908038   -0.871040    0.911919
     19          1           0       -0.189335   -2.195416   -0.417041
     20          1           0       -0.987794   -1.850522    1.150671
     21          6           0        2.260032   -1.031269    0.142431
     22          8           0        0.862059   -0.171537    1.919608
     23          8           0        3.047177   -0.042731    0.206924
     24          8           0        2.431373   -2.124381   -0.453614
     25          8           0       -2.253782   -0.855082    3.123272
     26          1           0       -1.354137   -0.575639    2.898585
     27          1           0       -2.688188   -0.948815    2.246971
     28          8           0        5.752692   -0.768273    0.937156
     29          1           0        4.842860   -0.422279    0.992221
     30          1           0        5.697256   -1.192672    0.061335
     31          8           0        4.773560   -1.372427   -1.719414
     32          1           0        4.015261   -1.899115   -1.368034
     33          1           0        4.466337   -0.509338   -1.391823
     34          8           0       -1.843410    4.368946   -0.013837
     35          1           0       -0.950588    4.180514   -0.358298
     36          1           0       -2.172266    3.468915    0.117861
     37          8           0       -5.484289   -2.371142   -0.971656
     38          1           0       -4.813406   -2.032588   -1.595939
     39          1           0       -5.043138   -2.034406   -0.168798
 ---------------------------------------------------------------------
 Rotational constants (GHZ):      0.3417585      0.1696317      0.1448445
 Leave Link  202 at Wed Feb  6 09:21:12 2019, MaxMem=    33554432 cpu:         0.3
 (Enter /global/apps/Gaussian/09.d01/l301.exe)
 Standard basis: 6-31G(d,p) (6D, 7F)
 Ernie: Thresh=  0.10000D-02 Tol=  0.10000D-05 Strict=F.
 There are   405 symmetry adapted cartesian basis functions of A   symmetry.
 There are   405 symmetry adapted basis functions of A   symmetry.
   405 basis functions,   714 primitive gaussians,   405 cartesian basis functions
    84 alpha electrons       84 beta electrons
       nuclear repulsion energy      1873.0608740935 Hartrees.
 IExCor=  402 DFT=T Ex+Corr=B3LYP ExCW=0 ScaHFX=  0.200000
 ScaDFX=  0.800000  0.720000  1.000000  0.810000 ScalE2=  1.000000  1.000000
 IRadAn=      0 IRanWt=     -1 IRanGd=            0 ICorTp=0 IEmpDi=131
 NAtoms=   39 NActive=   39 NUniq=   39 SFac= 1.00D+00 NAtFMM=   60 NAOKFM=F Big=F
 Integral buffers will be    131072 words long.
 Raffenetti 2 integral format.
 Two-electron integral symmetry is turned on.
 R6Disp:  Grimme-D3 Dispersion energy=       -0.0520097571 Hartrees.
 Nuclear repulsion after empirical dispersion term =     1873.0088643364 Hartrees.
 Leave Link  301 at Wed Feb  6 09:21:12 2019, MaxMem=    33554432 cpu:         4.3
 (Enter /global/apps/Gaussian/09.d01/linda-exe/../l302.exel)
 NPDir=0 NMtPBC=     1 NCelOv=     1 NCel=       1 NClECP=     1 NCelD=      1
         NCelK=      1 NCelE2=     1 NClLst=     1 CellRange=     0.0.
 One-electron integrals computed using PRISM.
 PrsmSu:  requested number of processors reduced to:   8 ShMem   1 Linda.
 NBasis=   405 RedAO= T EigKep=  9.05D-04  NBF=   405
 NBsUse=   405 1.00D-06 EigRej= -1.00D+00 NBFU=   405
 Precomputing XC quadrature grid using
 IXCGrd= 4 IRadAn=           0 IRanWt=          -1 IRanGd=           0 AccXCQ= 0.00D+00.
 Generated NRdTot=       0 NPtTot=           0 NUsed=           0 NTot=          32
 NSgBfM=   387   390   391   394   394 MxSgAt=    39 MxSgA2=    39.
 Leave Link  302 at Wed Feb  6 09:21:14 2019, MaxMem=    33554432 cpu:        12.9
 (Enter /global/apps/Gaussian/09.d01/l303.exe)
 DipDrv:  MaxL=1.
 Leave Link  303 at Wed Feb  6 09:21:15 2019, MaxMem=    33554432 cpu:         2.6
 (Enter /global/apps/Gaussian/09.d01/linda-exe/../l401.exel)
 ExpMin= 1.61D-01 ExpMax= 5.48D+03 ExpMxC= 8.25D+02 IAcc=1 IRadAn=         1 AccDes= 0.00D+00
 Harris functional with IExCor=  402 and IRadAn=       1 diagonalized for initial guess.
 HarFok:  IExCor=  402 AccDes= 0.00D+00 IRadAn=         1 IDoV= 1 UseB2=F ITyADJ=14
 ICtDFT=  3500011 ScaDFX=  1.000000  1.000000  1.000000  1.000000
 FoFCou: FMM=F IPFlag=           0 FMFlag=      100000 FMFlg1=           0
         NFxFlg=           0 DoJE=T BraDBF=F KetDBF=T FulRan=T
         wScrn=  0.000000 ICntrl=     500 IOpCl=  0 I1Cent=   200000004 NGrid=           0
         NMat0=    1 NMatS0=      1 NMatT0=    0 NMatD0=    1 NMtDS0=    0 NMtDT0=    0
 Petite list used in FoFCou.
 Harris En= -1219.99642627125    
 JPrj=0 DoOrth=F DoCkMO=F.
 Leave Link  401 at Wed Feb  6 09:21:16 2019, MaxMem=    33554432 cpu:        14.2
 (Enter /global/apps/Gaussian/09.d01/linda-exe/../l502.exel)
 Closed shell SCF:
 Using DIIS extrapolation, IDIIS=  1040.
 Integral symmetry usage will be decided dynamically.
 IVT=      521776 IEndB=      521776 NGot=    33554432 MDV=    33213727
 LenX=    33213727 LenY=    33049261
 Requested convergence on RMS density matrix=1.00D-08 within 128 cycles.
 Requested convergence on MAX density matrix=1.00D-06.
 Requested convergence on             energy=1.00D-06.
 No special actions if energy rises.
 Fock matrices will be formed incrementally for  20 cycles.
 Integral accuracy reduced to 1.0D-05 until final iterations.

 Cycle   1  Pass 0  IDiag  1:
 FoFJK:  IHMeth= 1 ICntrl=       0 DoSepK=F KAlg= 0 I1Cent=   0 FoldK=F
 IRaf= 700000000 NMat=   1 IRICut=       1 DoRegI=T DoRafI=F ISym2E= 0.
 FoFCou: FMM=F IPFlag=           0 FMFlag=      100000 FMFlg1=           0
         NFxFlg=           0 DoJE=F BraDBF=F KetDBF=F FulRan=T
         wScrn=  0.000000 ICntrl=       0 IOpCl=  0 I1Cent=           0 NGrid=           0
         NMat0=    1 NMatS0=      1 NMatT0=    0 NMatD0=    1 NMtDS0=    0 NMtDT0=    0
 Symmetry not used in FoFCou.
 E= -1218.70290944584    
 DIIS: error= 4.45D-02 at cycle   1 NSaved=   1.
 NSaved= 1 IEnMin= 1 EnMin= -1218.70290944584     IErMin= 1 ErrMin= 4.45D-02
 ErrMax= 4.45D-02  0.00D+00 EMaxC= 1.00D-01 BMatC= 1.04D+00 BMatP= 1.04D+00
 IDIUse=3 WtCom= 5.55D-01 WtEn= 4.45D-01
 Coeff-Com:  0.100D+01
 Coeff-En:   0.100D+01
 Coeff:      0.100D+01
 Gap=     0.121 Goal=   None    Shift=    0.000
 GapD=    0.121 DampG=1.000 DampE=0.500 DampFc=0.5000 IDamp=-1.
 Damping current iteration by 5.00D-01
 RMSDP=4.73D-03 MaxDP=1.71D-01              OVMax= 1.87D-01

 Cycle   2  Pass 0  IDiag  1:
 RMSU=  2.35D-03    CP:  9.86D-01
 E= -1218.97058727431     Delta-E=       -0.267677828472 Rises=F Damp=T
 DIIS: error= 8.80D-03 at cycle   2 NSaved=   2.
 NSaved= 2 IEnMin= 2 EnMin= -1218.97058727431     IErMin= 2 ErrMin= 8.80D-03
 ErrMax= 8.80D-03  0.00D+00 EMaxC= 1.00D-01 BMatC= 9.27D-02 BMatP= 1.04D+00
 IDIUse=3 WtCom= 9.12D-01 WtEn= 8.80D-02
 Coeff-Com:  0.183D+00 0.817D+00
 Coeff-En:   0.292D+00 0.708D+00
 Coeff:      0.193D+00 0.807D+00
 Gap=     0.173 Goal=   None    Shift=    0.000
 RMSDP=1.13D-03 MaxDP=5.77D-02 DE=-2.68D-01 OVMax= 1.42D-01

 Cycle   3  Pass 0  IDiag  1:
 RMSU=  1.06D-03    CP:  9.83D-01  8.26D-01
 E= -1219.44369804163     Delta-E=       -0.473110767321 Rises=F Damp=F
 DIIS: error= 7.16D-03 at cycle   3 NSaved=   3.
 NSaved= 3 IEnMin= 3 EnMin= -1219.44369804163     IErMin= 3 ErrMin= 7.16D-03
 ErrMax= 7.16D-03  0.00D+00 EMaxC= 1.00D-01 BMatC= 5.53D-02 BMatP= 9.27D-02
 IDIUse=3 WtCom= 9.28D-01 WtEn= 7.16D-02
 Coeff-Com:  0.788D-01 0.454D+00 0.467D+00
 Coeff-En:   0.000D+00 0.000D+00 0.100D+01
 Coeff:      0.731D-01 0.422D+00 0.505D+00
 Gap=     0.163 Goal=   None    Shift=    0.000
 RMSDP=7.71D-04 MaxDP=5.00D-02 DE=-4.73D-01 OVMax= 7.82D-02

 Cycle   4  Pass 0  IDiag  1:
 RMSU=  4.54D-04    CP:  9.86D-01  8.47D-01  4.15D-01
 E= -1219.48024689484     Delta-E=       -0.036548853212 Rises=F Damp=F
 DIIS: error= 4.01D-03 at cycle   4 NSaved=   4.
 NSaved= 4 IEnMin= 4 EnMin= -1219.48024689484     IErMin= 4 ErrMin= 4.01D-03
 ErrMax= 4.01D-03  0.00D+00 EMaxC= 1.00D-01 BMatC= 1.58D-02 BMatP= 5.53D-02
 IDIUse=3 WtCom= 9.60D-01 WtEn= 4.01D-02
 Coeff-Com:  0.190D-01 0.108D+00 0.342D+00 0.531D+00
 Coeff-En:   0.000D+00 0.000D+00 0.240D+00 0.760D+00
 Coeff:      0.182D-01 0.104D+00 0.338D+00 0.541D+00
 Gap=     0.162 Goal=   None    Shift=    0.000
 RMSDP=3.03D-04 MaxDP=2.53D-02 DE=-3.65D-02 OVMax= 2.55D-02

 Cycle   5  Pass 0  IDiag  1:
 RMSU=  1.64D-04    CP:  9.86D-01  8.29D-01  5.46D-01  5.38D-01
 E= -1219.49147536650     Delta-E=       -0.011228471657 Rises=F Damp=F
 DIIS: error= 9.19D-04 at cycle   5 NSaved=   5.
 NSaved= 5 IEnMin= 5 EnMin= -1219.49147536650     IErMin= 5 ErrMin= 9.19D-04
 ErrMax= 9.19D-04  0.00D+00 EMaxC= 1.00D-01 BMatC= 1.57D-03 BMatP= 1.58D-02
 IDIUse=3 WtCom= 9.91D-01 WtEn= 9.19D-03
 Coeff-Com:  0.432D-02 0.133D-01 0.156D+00 0.334D+00 0.491D+00
 Coeff-En:   0.000D+00 0.000D+00 0.000D+00 0.518D-01 0.948D+00
 Coeff:      0.428D-02 0.131D-01 0.155D+00 0.332D+00 0.496D+00
 Gap=     0.163 Goal=   None    Shift=    0.000
 RMSDP=1.08D-04 MaxDP=6.33D-03 DE=-1.12D-02 OVMax= 9.48D-03

 Cycle   6  Pass 0  IDiag  1:
 RMSU=  5.72D-05    CP:  9.86D-01  8.31D-01  5.57D-01  5.95D-01  4.70D-01
 E= -1219.49269770853     Delta-E=       -0.001222342029 Rises=F Damp=F
 DIIS: error= 4.89D-04 at cycle   6 NSaved=   6.
 NSaved= 6 IEnMin= 6 EnMin= -1219.49269770853     IErMin= 6 ErrMin= 4.89D-04
 ErrMax= 4.89D-04  0.00D+00 EMaxC= 1.00D-01 BMatC= 1.59D-04 BMatP= 1.57D-03
 IDIUse=3 WtCom= 9.95D-01 WtEn= 4.89D-03
 Coeff-Com:  0.139D-02-0.126D-02 0.678D-01 0.158D+00 0.308D+00 0.466D+00
 Coeff-En:   0.000D+00 0.000D+00 0.000D+00 0.000D+00 0.370D-01 0.963D+00
 Coeff:      0.139D-02-0.126D-02 0.674D-01 0.157D+00 0.307D+00 0.469D+00
 Gap=     0.163 Goal=   None    Shift=    0.000
 RMSDP=3.43D-05 MaxDP=2.59D-03 DE=-1.22D-03 OVMax= 3.70D-03

 Cycle   7  Pass 0  IDiag  1:
 RMSU=  1.75D-05    CP:  9.86D-01  8.31D-01  5.63D-01  5.94D-01  5.29D-01
                    CP:  5.29D-01
 E= -1219.49281528718     Delta-E=       -0.000117578649 Rises=F Damp=F
 DIIS: error= 2.41D-04 at cycle   7 NSaved=   7.
 NSaved= 7 IEnMin= 7 EnMin= -1219.49281528718     IErMin= 7 ErrMin= 2.41D-04
 ErrMax= 2.41D-04  0.00D+00 EMaxC= 1.00D-01 BMatC= 1.80D-05 BMatP= 1.59D-04
 IDIUse=3 WtCom= 9.98D-01 WtEn= 2.41D-03
 Coeff-Com:  0.534D-03-0.218D-02 0.275D-01 0.661D-01 0.147D+00 0.301D+00
 Coeff-Com:  0.460D+00
 Coeff-En:   0.000D+00 0.000D+00 0.000D+00 0.000D+00 0.000D+00 0.582D-01
 Coeff-En:   0.942D+00
 Coeff:      0.533D-03-0.218D-02 0.275D-01 0.659D-01 0.146D+00 0.300D+00
 Coeff:      0.462D+00
 Gap=     0.163 Goal=   None    Shift=    0.000
 RMSDP=1.12D-05 MaxDP=8.22D-04 DE=-1.18D-04 OVMax= 1.69D-03

 Cycle   8  Pass 0  IDiag  1:
 RMSU=  6.32D-06    CP:  9.86D-01  8.31D-01  5.63D-01  5.99D-01  5.33D-01
                    CP:  5.62D-01  5.00D-01
 E= -1219.49282783229     Delta-E=       -0.000012545113 Rises=F Damp=F
 DIIS: error= 7.84D-05 at cycle   8 NSaved=   8.
 NSaved= 8 IEnMin= 8 EnMin= -1219.49282783229     IErMin= 8 ErrMin= 7.84D-05
 ErrMax= 7.84D-05  0.00D+00 EMaxC= 1.00D-01 BMatC= 2.54D-06 BMatP= 1.80D-05
 IDIUse=1 WtCom= 1.00D+00 WtEn= 0.00D+00
 Coeff-Com:  0.210D-03-0.133D-02 0.966D-02 0.235D-01 0.580D-01 0.138D+00
 Coeff-Com:  0.307D+00 0.465D+00
 Coeff:      0.210D-03-0.133D-02 0.966D-02 0.235D-01 0.580D-01 0.138D+00
 Coeff:      0.307D+00 0.465D+00
 Gap=     0.163 Goal=   None    Shift=    0.000
 RMSDP=3.73D-06 MaxDP=3.26D-04 DE=-1.25D-05 OVMax= 5.44D-04

 Initial convergence to 1.0D-05 achieved.  Increase integral accuracy.
 Cycle   9  Pass 1  IDiag  1:
 E= -1219.49293206838     Delta-E=       -0.000104236085 Rises=F Damp=F
 DIIS: error= 3.22D-05 at cycle   1 NSaved=   1.
 NSaved= 1 IEnMin= 1 EnMin= -1219.49293206838     IErMin= 1 ErrMin= 3.22D-05
 ErrMax= 3.22D-05  0.00D+00 EMaxC= 1.00D-01 BMatC= 6.80D-07 BMatP= 6.80D-07
 IDIUse=1 WtCom= 1.00D+00 WtEn= 0.00D+00
 Coeff-Com:  0.100D+01
 Coeff:      0.100D+01
 Gap=     0.163 Goal=   None    Shift=    0.000
 RMSDP=3.73D-06 MaxDP=3.26D-04 DE=-1.04D-04 OVMax= 2.05D-04

 Cycle  10  Pass 1  IDiag  1:
 RMSU=  1.18D-05    CP:  1.00D+00
 E= -1219.49293253804     Delta-E=       -0.000000469664 Rises=F Damp=F
 DIIS: error= 2.19D-05 at cycle   2 NSaved=   2.
 NSaved= 2 IEnMin= 2 EnMin= -1219.49293253804     IErMin= 2 ErrMin= 2.19D-05
 ErrMax= 2.19D-05  0.00D+00 EMaxC= 1.00D-01 BMatC= 3.34D-07 BMatP= 6.80D-07
 IDIUse=1 WtCom= 1.00D+00 WtEn= 0.00D+00
 Coeff-Com:  0.368D+00 0.632D+00
 Coeff:      0.368D+00 0.632D+00
 Gap=     0.163 Goal=   None    Shift=    0.000
 RMSDP=2.37D-06 MaxDP=1.80D-04 DE=-4.70D-07 OVMax= 3.12D-04

 Cycle  11  Pass 1  IDiag  1:
 RMSU=  2.36D-06    CP:  1.00D+00  9.88D-01
 E= -1219.49293254374     Delta-E=       -0.000000005694 Rises=F Damp=F
 DIIS: error= 2.64D-05 at cycle   3 NSaved=   3.
 NSaved= 3 IEnMin= 3 EnMin= -1219.49293254374     IErMin= 2 ErrMin= 2.19D-05
 ErrMax= 2.64D-05  0.00D+00 EMaxC= 1.00D-01 BMatC= 3.26D-07 BMatP= 3.34D-07
 IDIUse=1 WtCom= 1.00D+00 WtEn= 0.00D+00
 Coeff-Com:  0.919D-02 0.495D+00 0.496D+00
 Coeff:      0.919D-02 0.495D+00 0.496D+00
 Gap=     0.163 Goal=   None    Shift=    0.000
 RMSDP=1.31D-06 MaxDP=9.65D-05 DE=-5.69D-09 OVMax= 2.01D-04

 Cycle  12  Pass 1  IDiag  1:
 RMSU=  5.51D-07    CP:  1.00D+00  1.01D+00  5.12D-01
 E= -1219.49293279080     Delta-E=       -0.000000247065 Rises=F Damp=F
 DIIS: error= 5.64D-06 at cycle   4 NSaved=   4.
 NSaved= 4 IEnMin= 4 EnMin= -1219.49293279080     IErMin= 4 ErrMin= 5.64D-06
 ErrMax= 5.64D-06  0.00D+00 EMaxC= 1.00D-01 BMatC= 1.98D-08 BMatP= 3.26D-07
 IDIUse=1 WtCom= 1.00D+00 WtEn= 0.00D+00
 Coeff-Com: -0.122D-01 0.289D+00 0.322D+00 0.401D+00
 Coeff:     -0.122D-01 0.289D+00 0.322D+00 0.401D+00
 Gap=     0.163 Goal=   None    Shift=    0.000
 RMSDP=3.03D-07 MaxDP=2.59D-05 DE=-2.47D-07 OVMax= 4.11D-05

 Cycle  13  Pass 1  IDiag  1:
 RMSU=  1.46D-07    CP:  1.00D+00  1.01D+00  5.33D-01  5.28D-01
 E= -1219.49293280541     Delta-E=       -0.000000014610 Rises=F Damp=F
 DIIS: error= 7.65D-07 at cycle   5 NSaved=   5.
 NSaved= 5 IEnMin= 5 EnMin= -1219.49293280541     IErMin= 5 ErrMin= 7.65D-07
 ErrMax= 7.65D-07  0.00D+00 EMaxC= 1.00D-01 BMatC= 5.90D-10 BMatP= 1.98D-08
 IDIUse=1 WtCom= 1.00D+00 WtEn= 0.00D+00
 Coeff-Com: -0.726D-02 0.140D+00 0.159D+00 0.228D+00 0.480D+00
 Coeff:     -0.726D-02 0.140D+00 0.159D+00 0.228D+00 0.480D+00
 Gap=     0.163 Goal=   None    Shift=    0.000
 RMSDP=7.68D-08 MaxDP=3.68D-06 DE=-1.46D-08 OVMax= 7.51D-06

 Cycle  14  Pass 1  IDiag  1:
 RMSU=  6.24D-08    CP:  1.00D+00  1.01D+00  5.34D-01  5.28D-01  6.99D-01
 E= -1219.49293280590     Delta-E=       -0.000000000492 Rises=F Damp=F
 DIIS: error= 3.07D-07 at cycle   6 NSaved=   6.
 NSaved= 6 IEnMin= 6 EnMin= -1219.49293280590     IErMin= 6 ErrMin= 3.07D-07
 ErrMax= 3.07D-07  0.00D+00 EMaxC= 1.00D-01 BMatC= 9.88D-11 BMatP= 5.90D-10
 IDIUse=1 WtCom= 1.00D+00 WtEn= 0.00D+00
 Coeff-Com: -0.282D-02 0.445D-01 0.523D-01 0.837D-01 0.305D+00 0.517D+00
 Coeff:     -0.282D-02 0.445D-01 0.523D-01 0.837D-01 0.305D+00 0.517D+00
 Gap=     0.163 Goal=   None    Shift=    0.000
 RMSDP=2.84D-08 MaxDP=1.48D-06 DE=-4.92D-10 OVMax= 3.14D-06

 Cycle  15  Pass 1  IDiag  1:
 RMSU=  2.06D-08    CP:  1.00D+00  1.01D+00  5.32D-01  5.27D-01  7.73D-01
                    CP:  7.44D-01
 E= -1219.49293280598     Delta-E=       -0.000000000078 Rises=F Damp=F
 DIIS: error= 1.09D-07 at cycle   7 NSaved=   7.
 NSaved= 7 IEnMin= 7 EnMin= -1219.49293280598     IErMin= 7 ErrMin= 1.09D-07
 ErrMax= 1.09D-07  0.00D+00 EMaxC= 1.00D-01 BMatC= 1.69D-11 BMatP= 9.88D-11
 IDIUse=1 WtCom= 1.00D+00 WtEn= 0.00D+00
 Coeff-Com: -0.436D-03 0.283D-02 0.434D-02 0.115D-01 0.108D+00 0.338D+00
 Coeff-Com:  0.536D+00
 Coeff:     -0.436D-03 0.283D-02 0.434D-02 0.115D-01 0.108D+00 0.338D+00
 Coeff:      0.536D+00
 Gap=     0.163 Goal=   None    Shift=    0.000
 RMSDP=1.19D-08 MaxDP=4.80D-07 DE=-7.78D-11 OVMax= 8.85D-07

 Cycle  16  Pass 1  IDiag  1:
 RMSU=  7.49D-09    CP:  1.00D+00  1.01D+00  5.34D-01  5.33D-01  7.78D-01
                    CP:  8.05D-01  6.59D-01
 E= -1219.49293280599     Delta-E=       -0.000000000011 Rises=F Damp=F
 DIIS: error= 4.15D-08 at cycle   8 NSaved=   8.
 NSaved= 8 IEnMin= 8 EnMin= -1219.49293280599     IErMin= 8 ErrMin= 4.15D-08
 ErrMax= 4.15D-08  0.00D+00 EMaxC= 1.00D-01 BMatC= 1.77D-12 BMatP= 1.69D-11
 IDIUse=1 WtCom= 1.00D+00 WtEn= 0.00D+00
 Coeff-Com:  0.252D-04-0.298D-02-0.287D-02-0.188D-02 0.309D-01 0.144D+00
 Coeff-Com:  0.321D+00 0.512D+00
 Coeff:      0.252D-04-0.298D-02-0.287D-02-0.188D-02 0.309D-01 0.144D+00
 Coeff:      0.321D+00 0.512D+00
 Gap=     0.163 Goal=   None    Shift=    0.000
 RMSDP=3.44D-09 MaxDP=1.79D-07 DE=-1.14D-11 OVMax= 3.20D-07

 SCF Done:  E(RB3LYP) =  -1219.49293281     A.U. after   16 cycles
            NFock= 16  Conv=0.34D-08     -V/T= 2.0086
 KE= 1.209108065315D+03 PE=-6.648769406720D+03 EE= 2.347159544263D+03
 Leave Link  502 at Wed Feb  6 09:21:31 2019, MaxMem=    33554432 cpu:       270.7
 (Enter /global/apps/Gaussian/09.d01/l601.exe)
 Copying SCF densities to generalized density rwf, IOpCl= 0 IROHF=0.

 **********************************************************************

            Population analysis using the SCF density.

 **********************************************************************

 Orbital symmetries:
       Occupied  (A) (A) (A) (A) (A) (A) (A) (A) (A) (A) (A) (A)
                 (A) (A) (A) (A) (A) (A) (A) (A) (A) (A) (A) (A)
                 (A) (A) (A) (A) (A) (A) (A) (A) (A) (A) (A) (A)
                 (A) (A) (A) (A) (A) (A) (A) (A) (A) (A) (A) (A)
                 (A) (A) (A) (A) (A) (A) (A) (A) (A) (A) (A) (A)
                 (A) (A) (A) (A) (A) (A) (A) (A) (A) (A) (A) (A)
                 (A) (A) (A) (A) (A) (A) (A) (A) (A) (A) (A) (A)
       Virtual   (A) (A) (A) (A) (A) (A) (A) (A) (A) (A) (A) (A)
                 (A) (A) (A) (A) (A) (A) (A) (A) (A) (A) (A) (A)
                 (A) (A) (A) (A) (A) (A) (A) (A) (A) (A) (A) (A)
                 (A) (A) (A) (A) (A) (A) (A) (A) (A) (A) (A) (A)
                 (A) (A) (A) (A) (A) (A) (A) (A) (A) (A) (A) (A)
                 (A) (A) (A) (A) (A) (A) (A) (A) (A) (A) (A) (A)
                 (A) (A) (A) (A) (A) (A) (A) (A) (A) (A) (A) (A)
                 (A) (A) (A) (A) (A) (A) (A) (A) (A) (A) (A) (A)
                 (A) (A) (A) (A) (A) (A) (A) (A) (A) (A) (A) (A)
                 (A) (A) (A) (A) (A) (A) (A) (A) (A) (A) (A) (A)
                 (A) (A) (A) (A) (A) (A) (A) (A) (A) (A) (A) (A)
                 (A) (A) (A) (A) (A) (A) (A) (A) (A) (A) (A) (A)
                 (A) (A) (A) (A) (A) (A) (A) (A) (A) (A) (A) (A)
                 (A) (A) (A) (A) (A) (A) (A) (A) (A) (A) (A) (A)
                 (A) (A) (A) (A) (A) (A) (A) (A) (A) (A) (A) (A)
                 (A) (A) (A) (A) (A) (A) (A) (A) (A) (A) (A) (A)
                 (A) (A) (A) (A) (A) (A) (A) (A) (A) (A) (A) (A)
                 (A) (A) (A) (A) (A) (A) (A) (A) (A) (A) (A) (A)
                 (A) (A) (A) (A) (A) (A) (A) (A) (A) (A) (A) (A)
                 (A) (A) (A) (A) (A) (A) (A) (A) (A) (A) (A) (A)
                 (A) (A) (A) (A) (A) (A) (A) (A) (A) (A) (A) (A)
                 (A) (A) (A) (A) (A) (A) (A) (A) (A) (A) (A) (A)
                 (A) (A) (A) (A) (A) (A) (A) (A) (A) (A) (A) (A)
                 (A) (A) (A) (A) (A) (A) (A) (A) (A) (A) (A) (A)
                 (A) (A) (A) (A) (A) (A) (A) (A) (A) (A) (A) (A)
                 (A) (A) (A) (A) (A) (A) (A) (A) (A) (A) (A) (A)
                 (A) (A) (A) (A) (A) (A) (A) (A) (A)
 The electronic state is 1-A.
 Alpha  occ. eigenvalues --  -18.97578 -18.93719 -18.92793 -18.91077 -18.90650
 Alpha  occ. eigenvalues --  -18.89267 -18.88952 -18.88671 -18.87793 -18.87713
 Alpha  occ. eigenvalues --  -18.87480 -10.06541 -10.05830 -10.05760 -10.04243
 Alpha  occ. eigenvalues --  -10.00593  -9.98871  -9.98729  -9.98699  -9.98644
 Alpha  occ. eigenvalues --   -9.98073  -0.83889  -0.83640  -0.80930  -0.80483
 Alpha  occ. eigenvalues --   -0.78760  -0.76892  -0.76314  -0.75077  -0.73745
 Alpha  occ. eigenvalues --   -0.72869  -0.71713  -0.63908  -0.55691  -0.54628
 Alpha  occ. eigenvalues --   -0.49879  -0.42746  -0.39089  -0.38913  -0.32920
 Alpha  occ. eigenvalues --   -0.32019  -0.30613  -0.29256  -0.28460  -0.27793
 Alpha  occ. eigenvalues --   -0.27217  -0.26391  -0.25741  -0.24891  -0.24278
 Alpha  occ. eigenvalues --   -0.23512  -0.23265  -0.22017  -0.21888  -0.21021
 Alpha  occ. eigenvalues --   -0.20043  -0.19028  -0.18442  -0.18140  -0.17765
 Alpha  occ. eigenvalues --   -0.17295  -0.16874  -0.16469  -0.15287  -0.14385
 Alpha  occ. eigenvalues --   -0.14264  -0.13684  -0.12824  -0.11936  -0.09805
 Alpha  occ. eigenvalues --   -0.08787  -0.08258  -0.07150  -0.06830  -0.05684
 Alpha  occ. eigenvalues --   -0.05606  -0.04758  -0.04204  -0.04168  -0.03079
 Alpha  occ. eigenvalues --   -0.02769  -0.01997  -0.01781  -0.00183
 Alpha virt. eigenvalues --    0.16102   0.20322   0.21831   0.25983   0.26881
 Alpha virt. eigenvalues --    0.29109   0.30344   0.31655   0.32687   0.33181
 Alpha virt. eigenvalues --    0.34298   0.36608   0.37163   0.38096   0.38458
 Alpha virt. eigenvalues --    0.39209   0.39507   0.39889   0.40225   0.41496
 Alpha virt. eigenvalues --    0.42118   0.42882   0.43361   0.43775   0.44689
 Alpha virt. eigenvalues --    0.45725   0.46227   0.46969   0.48773   0.51335
 Alpha virt. eigenvalues --    0.54454   0.54832   0.55944   0.57780   0.61113
 Alpha virt. eigenvalues --    0.65629   0.66589   0.67904   0.68243   0.70065
 Alpha virt. eigenvalues --    0.74177   0.75573   0.76551   0.77527   0.78996
 Alpha virt. eigenvalues --    0.80585   0.81472   0.82457   0.83027   0.83589
 Alpha virt. eigenvalues --    0.84885   0.85459   0.85922   0.87019   0.88082
 Alpha virt. eigenvalues --    0.89244   0.90265   0.91969   0.92223   0.93219
 Alpha virt. eigenvalues --    0.93724   0.95650   0.96264   0.96346   0.97839
 Alpha virt. eigenvalues --    0.98024   0.98931   0.99692   1.00212   1.00510
 Alpha virt. eigenvalues --    1.00987   1.01150   1.01952   1.02835   1.03217
 Alpha virt. eigenvalues --    1.03856   1.04232   1.05069   1.05860   1.05987
 Alpha virt. eigenvalues --    1.06218   1.06966   1.08497   1.09784   1.09947
 Alpha virt. eigenvalues --    1.10856   1.12001   1.12582   1.13251   1.13906
 Alpha virt. eigenvalues --    1.14541   1.15267   1.16193   1.16680   1.17640
 Alpha virt. eigenvalues --    1.18459   1.20666   1.22398   1.23136   1.23624
 Alpha virt. eigenvalues --    1.25382   1.26010   1.26296   1.27567   1.28654
 Alpha virt. eigenvalues --    1.29901   1.30464   1.30780   1.32244   1.33086
 Alpha virt. eigenvalues --    1.33447   1.35025   1.35210   1.36924   1.37850
 Alpha virt. eigenvalues --    1.39765   1.40929   1.41543   1.42640   1.43560
 Alpha virt. eigenvalues --    1.44642   1.47420   1.48011   1.49081   1.52281
 Alpha virt. eigenvalues --    1.53948   1.54537   1.54835   1.55742   1.56725
 Alpha virt. eigenvalues --    1.57359   1.59239   1.62522   1.63023   1.63469
 Alpha virt. eigenvalues --    1.65568   1.67256   1.67884   1.69602   1.70852
 Alpha virt. eigenvalues --    1.71656   1.72646   1.73960   1.75029   1.75615
 Alpha virt. eigenvalues --    1.76653   1.76978   1.78138   1.79308   1.80194
 Alpha virt. eigenvalues --    1.80613   1.81321   1.82071   1.82631   1.83081
 Alpha virt. eigenvalues --    1.83808   1.84712   1.85461   1.86741   1.87081
 Alpha virt. eigenvalues --    1.87676   1.88897   1.90082   1.90407   1.91254
 Alpha virt. eigenvalues --    1.92462   1.93834   1.95133   1.95515   1.96998
 Alpha virt. eigenvalues --    1.98042   1.98616   2.01319   2.03174   2.04884
 Alpha virt. eigenvalues --    2.06522   2.07572   2.08156   2.08936   2.10380
 Alpha virt. eigenvalues --    2.12122   2.13268   2.13855   2.14578   2.16361
 Alpha virt. eigenvalues --    2.16663   2.17625   2.18513   2.19992   2.21303
 Alpha virt. eigenvalues --    2.23309   2.24257   2.25475   2.26285   2.27750
 Alpha virt. eigenvalues --    2.28674   2.29291   2.33517   2.35360   2.35681
 Alpha virt. eigenvalues --    2.37126   2.38378   2.42175   2.45281   2.46941
 Alpha virt. eigenvalues --    2.49058   2.49290   2.49722   2.51470   2.52001
 Alpha virt. eigenvalues --    2.52395   2.53621   2.54633   2.54869   2.55722
 Alpha virt. eigenvalues --    2.57053   2.57957   2.59024   2.60551   2.61650
 Alpha virt. eigenvalues --    2.63357   2.64583   2.65117   2.65384   2.66576
 Alpha virt. eigenvalues --    2.67462   2.68445   2.69219   2.70450   2.70845
 Alpha virt. eigenvalues --    2.71433   2.71741   2.73318   2.74043   2.75645
 Alpha virt. eigenvalues --    2.76627   2.79140   2.80155   2.82726   2.83472
 Alpha virt. eigenvalues --    2.84162   2.84338   2.84816   2.85807   2.85956
 Alpha virt. eigenvalues --    2.86246   2.87856   2.88430   2.89313   2.90782
 Alpha virt. eigenvalues --    2.90981   2.92214   2.93244   2.93828   2.94144
 Alpha virt. eigenvalues --    2.96431   2.96653   2.96997   2.97859   3.01899
 Alpha virt. eigenvalues --    3.02707   3.05012   3.06893   3.09108   3.10767
 Alpha virt. eigenvalues --    3.13614   3.14256   3.15294   3.19400   3.22095
 Alpha virt. eigenvalues --    3.23201   3.23914   3.25095   3.25792   3.26273
 Alpha virt. eigenvalues --    3.28519   3.28925   3.31405   3.34217   3.40274
 Alpha virt. eigenvalues --    3.41829   3.42590   3.47318   3.52786   3.55471
 Alpha virt. eigenvalues --    3.58733   3.59137   3.62290   3.63170   3.63593
 Alpha virt. eigenvalues --    3.65086   3.65739   3.70160   3.76973   3.81146
 Alpha virt. eigenvalues --    3.83026   3.85085   3.85604   3.86125   3.86904
 Alpha virt. eigenvalues --    3.97152   3.97948   3.98177   4.06010   4.08688
 Alpha virt. eigenvalues --    4.22671   4.27169   4.35017   4.35735   4.42061
 Alpha virt. eigenvalues --    4.48870   4.51567   4.59353   4.62781   4.72434
 Alpha virt. eigenvalues --    4.75524   4.81210   4.84738   4.86865   5.03525
 Alpha virt. eigenvalues --    5.07182
          Condensed to atoms (all electrons):
               1          2          3          4          5          6
     1  C    5.316764   0.325277   0.357912  -0.024222  -0.051575   0.304897
     2  C    0.325277   4.937974  -0.056774   0.593829   0.363326  -0.029311
     3  C    0.357912  -0.056774   5.015641  -0.014084   0.005673  -0.028988
     4  C   -0.024222   0.593829  -0.014084   4.945430  -0.042593   0.002913
     5  H   -0.051575   0.363326   0.005673  -0.042593   0.624015  -0.005289
     6  C    0.304897  -0.029311  -0.028988   0.002913  -0.005289   4.328885
     7  C   -0.031681  -0.015066   0.550238  -0.052880   0.000198   0.002843
     8  H   -0.053187   0.005456   0.343154  -0.000006  -0.000146  -0.004957
     9  C   -0.036148  -0.024742  -0.025679   0.377633   0.005457   0.000331
    10  H    0.004570  -0.036051   0.000145   0.358689  -0.008494  -0.000060
    11  O   -0.100429   0.004584   0.000556   0.001045   0.019005   0.473811
    12  O   -0.107405   0.003737   0.004619  -0.000054   0.000322   0.389155
    13  H    0.005156   0.000357  -0.031021   0.004306   0.000015  -0.000074
    14  O    0.000388   0.000579   0.003168  -0.033713  -0.000058   0.000002
    15  H    0.000264  -0.001166   0.000950  -0.039301  -0.000127  -0.000015
    16  H   -0.000021  -0.000163  -0.000094   0.005842   0.000006   0.000000
    17  C    0.304923  -0.040688  -0.049347  -0.005538   0.000628  -0.029949
    18  C   -0.020335  -0.006475  -0.010328   0.000885  -0.000179   0.002186
    19  H   -0.025846  -0.005510   0.005354  -0.000149   0.002073  -0.001369
    20  H   -0.023723   0.005352  -0.005218   0.000052  -0.000066  -0.006877
    21  C   -0.001112   0.003687   0.000140   0.002558   0.000111  -0.000085
    22  O   -0.009965  -0.000363  -0.003467  -0.000053  -0.000007  -0.000061
    23  O    0.000072  -0.000332   0.000096   0.000980  -0.000003   0.000000
    24  O   -0.000141   0.000153  -0.000007  -0.000466  -0.000002   0.000001
    25  O   -0.000818   0.000004  -0.007854  -0.000001   0.000000  -0.000709
    26  H   -0.001618   0.000062   0.004446  -0.000005   0.000000  -0.000299
    27  H   -0.000911  -0.000025   0.000211  -0.000002  -0.000005  -0.001746
    28  O    0.000000   0.000000   0.000000   0.000000   0.000000   0.000000
    29  H    0.000000   0.000000   0.000000   0.000000   0.000000   0.000000
    30  H    0.000000   0.000000   0.000000   0.000000   0.000000   0.000000
    31  O    0.000000   0.000000   0.000000  -0.000001   0.000000   0.000000
    32  H   -0.000001  -0.000002   0.000000  -0.000001   0.000000   0.000000
    33  H    0.000001  -0.000006   0.000000   0.000016   0.000000   0.000000
    34  O    0.000041  -0.000083  -0.004340   0.000006  -0.000001   0.000002
    35  H   -0.000056   0.000295   0.001621   0.000333   0.000000  -0.000002
    36  H   -0.000387   0.000211   0.012716   0.000015   0.000005  -0.000030
    37  O   -0.000109   0.000003   0.000001   0.000000   0.000002   0.000732
    38  H    0.001133  -0.000036  -0.000014  -0.000001  -0.000040   0.003142
    39  H    0.000915  -0.000017  -0.000021   0.000000  -0.000003   0.003220
               7          8          9         10         11         12
     1  C   -0.031681  -0.053187  -0.036148   0.004570  -0.100429  -0.107405
     2  C   -0.015066   0.005456  -0.024742  -0.036051   0.004584   0.003737
     3  C    0.550238   0.343154  -0.025679   0.000145   0.000556   0.004619
     4  C   -0.052880  -0.000006   0.377633   0.358689   0.001045  -0.000054
     5  H    0.000198  -0.000146   0.005457  -0.008494   0.019005   0.000322
     6  C    0.002843  -0.004957   0.000331  -0.000060   0.473811   0.389155
     7  C    5.050288  -0.036548   0.340564   0.005083  -0.000080   0.001141
     8  H   -0.036548   0.628843   0.005265   0.000014   0.000053   0.008530
     9  C    0.340564   0.005265   4.945784  -0.050068  -0.000015  -0.000015
    10  H    0.005083   0.000014  -0.050068   0.666407   0.000002   0.000000
    11  O   -0.000080   0.000053  -0.000015   0.000002   8.253095  -0.082086
    12  O    0.001141   0.008530  -0.000015   0.000000  -0.082086   8.323894
    13  H    0.357862  -0.009320  -0.054286  -0.000198   0.000001   0.000004
    14  O   -0.041253  -0.000073   0.144199   0.002566   0.000000   0.000000
    15  H   -0.046686  -0.000100   0.353279  -0.000719   0.000000   0.000000
    16  H   -0.000468   0.000006  -0.021966  -0.000132   0.000000   0.000000
    17  C   -0.011593   0.003861  -0.000588  -0.000049  -0.001039  -0.002831
    18  C    0.000768  -0.000761   0.000291  -0.000033  -0.000027   0.000054
    19  H    0.000123  -0.000119   0.000054  -0.000032   0.001265  -0.000094
    20  H   -0.000083  -0.001954  -0.000057   0.000006  -0.000169   0.007781
    21  C   -0.001718  -0.000016  -0.001211   0.000046   0.000001  -0.000002
    22  O   -0.002799  -0.000618  -0.000632  -0.000009   0.000000   0.000005
    23  O    0.000284   0.000000  -0.018006   0.000040   0.000000   0.000000
    24  O   -0.000002   0.000000  -0.000100  -0.000011   0.000000   0.000000
    25  O   -0.000122   0.020094   0.000001   0.000000  -0.000005  -0.015497
    26  H    0.000597   0.001061   0.000009   0.000000   0.000000   0.000628
    27  H    0.000233   0.000130  -0.000004   0.000000   0.000353   0.061398
    28  O    0.000000   0.000000   0.000000   0.000000   0.000000   0.000000
    29  H   -0.000001   0.000000   0.000008   0.000000   0.000000   0.000000
    30  H    0.000000   0.000000   0.000000   0.000000   0.000000   0.000000
    31  O    0.000000   0.000000  -0.000001   0.000000   0.000000   0.000000
    32  H    0.000000   0.000000   0.000000   0.000002   0.000000   0.000000
    33  H    0.000001   0.000000   0.000022   0.000022   0.000000   0.000000
    34  O   -0.003388  -0.000086  -0.001056   0.000006   0.000000   0.000000
    35  H    0.001625  -0.000035  -0.005821  -0.000054   0.000000   0.000000
    36  H    0.019189   0.000406  -0.000424   0.000006   0.000001   0.000001
    37  O    0.000000   0.000002   0.000000   0.000000  -0.014749  -0.013503
    38  H    0.000000  -0.000003   0.000000   0.000000   0.048583  -0.000555
    39  H    0.000000  -0.000027   0.000000   0.000000  -0.000029   0.044714
              13         14         15         16         17         18
     1  C    0.005156   0.000388   0.000264  -0.000021   0.304923  -0.020335
     2  C    0.000357   0.000579  -0.001166  -0.000163  -0.040688  -0.006475
     3  C   -0.031021   0.003168   0.000950  -0.000094  -0.049347  -0.010328
     4  C    0.004306  -0.033713  -0.039301   0.005842  -0.005538   0.000885
     5  H    0.000015  -0.000058  -0.000127   0.000006   0.000628  -0.000179
     6  C   -0.000074   0.000002  -0.000015   0.000000  -0.029949   0.002186
     7  C    0.357862  -0.041253  -0.046686  -0.000468  -0.011593   0.000768
     8  H   -0.009320  -0.000073  -0.000100   0.000006   0.003861  -0.000761
     9  C   -0.054286   0.144199   0.353279  -0.021966  -0.000588   0.000291
    10  H   -0.000198   0.002566  -0.000719  -0.000132  -0.000049  -0.000033
    11  O    0.000001   0.000000   0.000000   0.000000  -0.001039  -0.000027
    12  O    0.000004   0.000000   0.000000   0.000000  -0.002831   0.000054
    13  H    0.664391  -0.000933  -0.001023   0.003790   0.000033  -0.000367
    14  O   -0.000933   8.216155  -0.028258   0.268507  -0.000021  -0.000012
    15  H   -0.001023  -0.028258   0.562424  -0.005531   0.001137  -0.001608
    16  H    0.003790   0.268507  -0.005531   0.456467   0.000005  -0.000006
    17  C    0.000033  -0.000021   0.001137   0.000005   5.252955   0.284496
    18  C   -0.000367  -0.000012  -0.001608  -0.000006   0.284496   4.856514
    19  H    0.000009   0.000000  -0.000095   0.000000   0.346120  -0.028538
    20  H    0.000004   0.000000  -0.000029   0.000000   0.326425  -0.021464
    21  C    0.000001  -0.000003  -0.000805   0.000003  -0.073569   0.299406
    22  O    0.000027   0.000042   0.001427  -0.000003  -0.073658   0.447295
    23  O   -0.000015   0.000108   0.040271   0.000014   0.003131  -0.079350
    24  O    0.000000   0.000000   0.000322   0.000000   0.005771  -0.080533
    25  O   -0.000006   0.000000   0.000000   0.000000  -0.004173  -0.000473
    26  H    0.000021   0.000000  -0.000002   0.000000  -0.002326  -0.000939
    27  H    0.000013   0.000000   0.000000   0.000000  -0.000748  -0.000253
    28  O    0.000000   0.000000   0.000004   0.000000   0.000000  -0.000024
    29  H    0.000000   0.000000   0.000006   0.000000  -0.000004   0.000334
    30  H    0.000000   0.000000  -0.000001   0.000000   0.000000   0.000006
    31  O    0.000000   0.000000   0.000007   0.000000   0.000003  -0.000017
    32  H    0.000000   0.000000  -0.000007   0.000000  -0.000058   0.001192
    33  H    0.000000   0.000000  -0.000022   0.000000  -0.000021   0.000636
    34  O    0.004041  -0.013798  -0.000066   0.001208  -0.000001   0.000000
    35  H   -0.000606   0.053502   0.000668  -0.003676   0.000002   0.000001
[...]
 017536,0.00007382,0.00008132,-0.00044409,-0.00024418,0.00019347,-0.000
 31351,-0.00075521,-0.00042043,0.00028230,0.00049810,-0.00039264,-0.000
 01426,0.00005208,0.00002775,-0.00091426,-0.00021611,0.00009282,0.00021
 783,0.00102973,0.00059102,-0.00000009,0.00003827,-0.00000115,0.0043567
 8,-0.00293248,0.00074715,0.00003870,-0.00004832,0.00005978,0.00048732,
 0.00014070,0.00012855,0.00053061,0.00015607,-0.00025486,0.00002340,-0.
 00014882,-0.00000828,-0.00307684,-0.00639726,0.00007817,-0.00005008,-0
 .00026488,0.00002646,-0.00257500,0.00186728,-0.00054876,-0.00006183,0.
 00001246,0.00003141,0.00029876,0.00003709,0.00017876,-0.00001524,0.000
 04123,-0.00000433,-0.00003416,0.00004392,-0.00004472,0.00016006,-0.000
 09531,-0.00008759,-0.00012820,0.00003132,-0.00017460,-0.00021239,0.000
 06376,-0.00002996,-0.00018534,0.00010075,0.00009155,0.00008527,0.00011
 299,-0.00021705,-0.00000237,-0.00005839,0.00009832,-0.00006663,-0.0000
 5789,0.00011183,-0.00011312,-0.00000197,-0.00003687,0.00009424,-0.0000
 0236,0.00004029,0.00005018,-0.00000319,0.00001470,-0.00015493,-0.00001
 330,0.00004898,0.00012209,0.00001255,-0.00005821,0.00008166,0.00000263
 ,-0.00003025,0.10587384,-0.06636241,-0.03883185,-0.05938463,0.07278371
 ,-0.00033843,-0.00012015,0.00025311,-0.00042744,-0.00037086,0.00009088
 ,0.00056808,0.00067073,-0.00009301,0.00021495,0.00044115,0.00001588,-0
 .00000750,-0.00002932,-0.00008877,0.00057459,-0.00002715,0.00047502,-0
 .00048418,-0.00006762,0.00067991,0.00016199,-0.00001326,-0.00006014,-0
 .00205931,0.00043383,0.00029127,0.00019613,-0.00012631,-0.00020521,-0.
 00034235,0.00008518,-0.00056745,-0.00009558,-0.00007337,-0.00028323,-0
 .00025357,-0.00010050,-0.00080527,0.00261753,-0.00070459,-0.00545290,0
 .00014528,0.00049053,-0.00010442,-0.00459152,0.00068385,-0.00033720,0.
 00013825,-0.00002112,-0.00025107,-0.00019187,0.00006342,0.00013714,0.0
 0004122,-0.00013498,0.00002787,-0.00002072,0.00004667,-0.00001464,-0.0
 0014008,0.00002171,0.00013609,0.00012323,-0.00010610,-0.00010863,0.000
 11207,0.00004679,-0.00009458,0.00011848,-0.00004270,-0.00013078,-0.000
 05671,-0.00021739,0.00005903,-0.00003471,0.00010207,-0.00003527,0.0000
 7192,0.00009559,0.00003620,0.00003641,-0.00000303,-0.00002383,-0.00003
 050,0.00000424,0.00000571,-0.00000958,-0.00000006,0.00001870,0.0000417
 1,0.00002972,-0.00008378,-0.00005592,-0.00002042,0.00005375,-0.0000195
 3,-0.00001256,0.00004907,0.15571860,-0.01429026,-0.07965586,-0.1691045
 3,0.01672482,0.09097388,-0.00044744,-0.00022514,0.00018948,0.00005590,
 0.00000476,-0.00008244,0.00131578,0.00167158,0.00023072,-0.00000324,-0
 .00008793,0.00016590,0.00006531,-0.00005809,-0.00010897,0.00203421,0.0
 0012411,0.00031829,-0.00087636,-0.00201240,0.00048675,0.00018862,-0.00
 005438,0.00003784,-0.00184528,0.00040436,0.00047778,0.00003287,-0.0000
 2707,-0.00012671,-0.00112303,0.00016418,-0.00063021,-0.00099271,0.0000
 0188,0.00011317,-0.00032018,0.00009820,-0.00059081,0.00028180,0.001462
 88,-0.00077494,0.00008565,0.00016157,-0.00006585,-0.00007510,-0.000384
 06,0.00022341,0.00011490,-0.00009452,-0.00027989,-0.00034481,0.0001042
 3,0.00000208,0.00005180,-0.00016328,0.00003293,0.00003982,-0.00003403,
 0.00003983,-0.00017169,0.00019484,0.00017708,0.00014009,-0.00017991,0.
 00005921,0.00022449,-0.00012699,-0.00002871,0.00020235,-0.00016520,-0.
 00017419,-0.00026846,-0.00020465,0.00020562,0.00003924,0.00013826,-0.0
 0013648,0.00023022,0.00006120,-0.00000016,0.00011513,-0.00001921,0.000
 02898,-0.00009578,0.00001266,-0.00003531,-0.00004836,0.00001032,-0.000
 00756,0.00014800,0.00000571,-0.00007338,-0.00012529,-0.00001126,0.0000
 7366,-0.00007497,-0.00000041,0.00004282,-0.07048409,-0.08520738,0.0466
 3072,-0.01605355,-0.04503528,0.01734293,0.08782401,0.00014135,-0.00024
 715,-0.00013586,-0.00003566,-0.00003536,-0.00006113,-0.00122616,-0.001
 71383,-0.00005049,0.00008059,-0.00000187,0.00000091,-0.00002864,0.0000
 2789,0.00004073,-0.00030284,-0.00034511,0.00009446,0.00146176,0.000991
 73,0.00050152,0.00006864,-0.00009198,0.00019817,0.00008417,0.00122228,
 -0.00068538,-0.00006119,0.00003104,0.00008564,0.00018421,0.00028019,0.
 00009383,0.00023132,0.00020946,-0.00010186,-0.00023177,-0.00021110,-0.
 00039518,0.00148839,-0.00150068,0.00028608,-0.00016567,-0.00033714,0.0
 0029982,-0.00037549,0.00007521,-0.00003927,-0.00008196,0.00000475,0.00
 010383,0.00020228,-0.00002152,0.00002114,-0.00001797,0.00006479,-0.000
 00693,-0.00000072,0.00000476,-0.00000925,0.00013555,-0.00007198,-0.000
 11012,-0.00010338,0.00008165,-0.00005925,-0.00016454,0.00001910,0.0000
 2018,-0.00014014,0.00007391,0.00010029,0.00005347,0.00010586,-0.000201
 20,0.00000507,-0.00005359,0.00007432,-0.00003265,-0.00006875,0.0001192
 8,-0.00007580,-0.00000238,-0.00002105,0.00006539,-0.00000010,0.0000253
 3,0.00003206,-0.00000179,0.00000659,-0.00010135,-0.00001552,0.00004519
 ,0.00008563,0.00001307,-0.00004706,0.00005144,0.00000707,-0.00002895,-
 0.13702671,-0.43199018,0.14430614,0.00646334,0.00053912,-0.00347461,0.
 12942152,0.43300305,-0.00004844,-0.00019087,0.00028946,-0.00045830,-0.
 00042782,0.00006684,0.00064857,0.00070832,-0.00028311,0.00013199,0.000
 68668,-0.00022128,0.00005582,-0.00004161,-0.00008884,0.00051763,-0.000
 22583,0.00131850,-0.00097851,0.00029135,-0.00023538,0.00000842,0.00028
 120,-0.00028033,0.00045781,-0.00101435,0.00096484,0.00006162,-0.000066
 12,-0.00012753,-0.00048555,0.00048031,-0.00092068,0.00004588,-0.000065
 35,-0.00070290,-0.00043495,-0.00010516,-0.00055407,-0.00068985,0.00008
 864,-0.00052718,0.00009459,0.00005269,-0.00021410,-0.00013543,-0.00010
 913,0.00011876,0.00004572,-0.00006612,-0.00024408,-0.00006367,0.000134
 08,0.00022244,0.00003653,-0.00011507,0.00002299,-0.00001146,0.00004608
 ,-0.00000910,-0.00006550,0.00008541,0.00012580,0.00007415,-0.00013055,
 -0.00018800,0.00006081,-0.00004240,-0.00008074,0.00007044,-0.00006928,
 -0.00013138,-0.00003380,-0.00029891,-0.00005611,-0.00004477,0.00010958
 ,0.00000115,0.00008140,0.00013515,0.00016260,0.00002479,-0.00000619,-0
 .00002271,-0.00002090,0.00000551,0.00000803,-0.00000489,0.00000159,0.0
 0001688,0.00002124,0.00001672,-0.00006718,-0.00003469,-0.00001291,0.00
 004219,-0.00001042,-0.00000642,0.00003877,0.05617040,0.11906351,-0.054
 84015,0.00867218,0.02178675,-0.00491125,-0.06378526,-0.14098358,0.0613
 0643,-0.00180084,-0.00029433,-0.00072896,0.00002740,0.00030953,-0.0006
 8381,-0.00036060,0.00084855,0.00060008,-0.00007499,-0.00025113,0.00010
 907,0.00029720,0.00002445,-0.00016581,0.00588109,0.00191792,0.00474976
 ,-0.00004156,-0.00045742,0.00000912,0.00009354,0.00012964,0.00011818,0
 .00004546,0.00074974,-0.00018020,-0.00010227,-0.00012811,0.00011548,-0
 .01476442,-0.00676389,0.00023860,-0.00903662,-0.00386105,-0.00753708,-
 0.00006240,-0.00023506,-0.00006198,-0.00002283,-0.00073998,0.00025774,
 -0.00011838,-0.00025577,0.00003611,0.00004294,0.00008344,-0.00008493,-
 0.00077482,-0.00037906,-0.00021733,0.00089374,0.00056027,0.00084353,0.
 00005700,-0.00005954,0.00008292,0.00028597,-0.00020286,0.00010681,0.00
 052088,-0.00003927,-0.00035962,-0.00041151,-0.00018547,-0.00071663,-0.
 00061575,-0.00013868,0.00003657,-0.00052821,0.00016658,0.00027051,-0.0
 0015047,0.00018634,-0.00155159,0.00014159,-0.00003917,0.00023343,0.000
 24932,-0.00026767,0.00200376,-0.00025642,0.00002310,-0.00007918,0.0002
 1075,-0.00001240,0.00008717,0.00011311,-0.00001720,0.00002915,-0.00035
 133,-0.00002800,0.00013530,0.00029504,0.00003649,-0.00015360,0.0001677
 8,0.00001083,-0.00007867,0.00044423,-0.00037110,0.00010733,-0.00021017
 ,0.00022763,-0.00008784,-0.00031253,0.00020954,-0.00002915,0.44189120,
 -0.00030492,-0.00100080,-0.00050487,-0.00012221,0.00010336,-0.00024095
 ,-0.00038950,0.00024260,0.00004547,-0.00003985,0.00000840,-0.00000236,
 0.00013732,-0.00003709,-0.00002825,0.00228107,-0.00126908,0.00292716,-
 0.00001276,-0.00005853,-0.00004266,0.00007564,-0.00002312,0.00010526,0
 .00008909,0.00006607,-0.00006278,-0.00000118,-0.00004836,0.00004503,-0
 .00750363,0.00284237,-0.00023099,-0.00352293,0.00395647,-0.00261814,0.
 00002217,-0.00007620,0.00002246,-0.00018644,-0.00007433,0.00009004,-0.
 00004035,-0.00008923,0.00002840,0.00006949,0.00002707,-0.00002736,-0.0
 0009970,-0.00016935,0.00005465,0.00021858,0.00013707,0.00016607,-0.000
 08815,0.00001295,0.00008182,0.00008739,-0.00010932,-0.00007067,0.00008
 424,-0.00031002,-0.00015272,-0.00009812,0.00003418,-0.00013461,-0.0001
 0346,0.00018615,0.00001102,-0.00011978,0.00022975,0.00014378,-0.000089
 82,0.00051373,-0.00046051,0.00004534,-0.00012365,0.00005549,0.00011064
 ,-0.00044163,0.00063204,-0.00005965,0.00004709,-0.00001997,0.00005086,
 -0.00002397,0.00002067,0.00002539,-0.00002038,0.00000656,-0.00008049,0
 .00003892,0.00003256,0.00006380,-0.00002256,-0.00003979,0.00004545,-0.
 00001498,-0.00001342,-0.00027252,-0.00012135,-0.00005123,0.00015043,0.
 00002291,-0.00001487,0.00021485,0.00003870,0.00007941,0.14549732,0.075
 92227,-0.00044433,-0.00018762,0.00163780,-0.00042865,-0.00008868,-0.00
 038286,0.00022637,-0.00001314,0.00001279,-0.00003142,-0.00012571,0.000
 20893,-0.00009791,0.00003842,0.00008562,0.00279668,0.00222085,-0.01517
 527,-0.00002389,0.00007410,0.00011779,0.00008503,0.00013318,0.00008763
 ,-0.00002812,0.00010924,-0.00009894,-0.00000193,-0.00006843,0.00004640
 ,0.00723614,0.00200004,0.00900080,-0.01165365,-0.00384121,0.00467107,-
 0.00002162,0.00001628,-0.00001413,-0.00001832,-0.00009668,0.00009285,-
 0.00002339,-0.00003124,0.00002338,0.00001910,0.00002034,-0.00001811,0.
 00021100,-0.00003802,0.00008139,0.00002086,-0.00005675,-0.00010546,-0.
 00007751,0.00001849,0.00003075,0.00013427,-0.00015766,0.00003092,0.000
 11762,-0.00001089,-0.00013339,-0.00014706,0.00000818,0.00018351,-0.000
 10294,-0.00001787,0.00005474,-0.00011017,0.00006039,0.00013870,-0.0004
 6053,-0.00003749,-0.00032145,0.00018151,0.00000697,-0.00002578,0.00039
 595,-0.00003038,0.00048519,-0.00003520,0.00000124,0.00001589,0.0000289
 4,-0.00000034,-0.00000080,0.00001079,-0.00000198,-0.00001399,-0.000041
 76,-0.00000971,0.00007043,0.00005103,0.00000993,-0.00005241,0.00002102
 ,0.00000428,-0.00003384,0.00003687,-0.00001841,0.00014937,-0.00002856,
 0.00001234,-0.00005553,-0.00000506,0.00001564,-0.00010124,0.01082191,-
 0.04903100,0.54508344,0.00107193,0.00002557,0.00207715,-0.00038680,-0.
 00030404,0.00031539,0.00054395,-0.00073208,-0.00041168,0.00004597,0.00
 012665,0.00005473,-0.00032820,-0.00000899,0.00021829,-0.00467405,-0.00
 004952,-0.01981933,0.00000871,0.00047574,0.00006971,-0.00000510,-0.000
 00358,-0.00001094,-0.00008014,-0.00055787,0.00011386,0.00010078,0.0000
 5876,-0.00007260,0.00656153,0.00347835,0.00917961,-0.00489800,-0.00167
 666,0.00759503,0.00003490,0.00019974,0.00003606,0.00002215,0.00056650,
 -0.00018449,0.00008047,0.00019062,-0.00002113,-0.00003301,-0.00005912,
 0.00006269,0.00088226,0.00029296,0.00032954,-0.00071665,-0.00054784,-0
 .00067691,-0.00008910,0.00006260,-0.00005741,-0.00011204,0.00005469,-0
 .00003818,-0.00037641,0.00010786,0.00025449,0.00028321,0.00016017,0.00
 062194,0.00045017,0.00007009,-0.00002248,0.00038218,-0.00015108,-0.000
 19853,0.00001634,-0.00016373,0.00086047,-0.00002298,0.00004312,-0.0001
 6248,-0.00014681,0.00015856,-0.00105842,0.00018741,-0.00002249,0.00005
 786,-0.00015474,0.00001192,-0.00006430,-0.00008234,0.00001486,-0.00002
 083,0.00025698,0.00001334,-0.00009950,-0.00021466,-0.00002107,0.000112
 59,-0.00012469,-0.00000558,0.00005689,-0.00035542,0.00027895,-0.000089
 78,0.00016653,-0.00017671,0.00006766,0.00025587,-0.00015873,0.00002167
 ,-0.26234902,-0.10702835,0.20646094,0.25084550,-0.00004188,0.00118171,
 0.00093151,-0.00000544,-0.00009422,0.00013974,0.00051192,-0.00019008,-
 0.00006556,0.00002555,-0.00001419,0.00003902,-0.00013782,0.00002132,0.
 00006014,-0.00123595,0.00182127,-0.00696448,-0.00000863,0.00011095,0.0
 0008316,-0.00002506,0.00002495,-0.00003796,-0.00005837,-0.00009266,0.0
 0004997,0.00001034,0.00002528,-0.00002810,0.00412401,-0.00574567,0.003
 24926,-0.00136577,-0.00286681,0.00240967,-0.00001655,0.00008584,-0.000
 01811,0.00010146,0.00009779,-0.00006508,0.00003069,0.00007018,-0.00001
 881,-0.00003941,-0.00002233,0.00002054,-0.00001493,0.00007346,-0.00001
 412,-0.00015306,-0.00008717,-0.00011877,0.00003265,-0.00000949,-0.0000
 4275,-0.00001584,0.00001822,0.00004463,-0.00006458,0.00018536,0.000094
 44,0.00006135,-0.00001163,0.00009650,0.00008123,-0.00010889,-0.0000033
 5,0.00008720,-0.00013753,-0.00009508,0.00002654,-0.00020961,0.00024544
 ,-0.00001585,0.00006236,-0.00003730,-0.00005900,0.00014893,-0.00031711
 ,0.00004574,-0.00002568,0.00001403,-0.00003840,0.00001327,-0.00001536,
 -0.00001947,0.00001163,-0.00000433,0.00006122,-0.00002085,-0.00002576,
 -0.00004887,0.00001131,0.00003036,-0.00003405,0.00000823,0.00001103,0.
 00010142,0.00011184,0.00005256,-0.00006703,-0.00003636,0.00000776,-0.0
 0007861,-0.00004618,-0.00007187,-0.10202126,-0.05916323,0.09042697,0.1
 0144565,0.05855768,0.00049524,0.00019638,-0.00073879,0.00017713,0.0000
 3009,0.00013218,-0.00012117,-0.00002109,-0.00001839,0.00001345,0.00005
 911,-0.00005971,0.00000076,-0.00001656,0.00001326,-0.00787652,-0.00286
 612,0.00569128,0.00002142,-0.00001881,-0.00006601,-0.00004611,-0.00006
 726,-0.00006322,0.00000054,-0.00005560,0.00004745,0.00001570,0.0000280
 8,-0.00002644,0.00290192,0.00122053,-0.00945816,0.00453662,0.00127876,
 -0.00064140,0.00001097,-0.00000358,0.00000687,0.00002318,0.00006590,-0
 .00005615,0.00001537,0.00001868,-0.00001314,-0.00001478,-0.00001318,0.
 00001115,-0.00008508,0.00001227,-0.00004334,-0.00005153,0.00002303,-0.
 00000942,0.00002468,-0.00000683,-0.00001552,-0.00008508,0.00008886,-0.
 00004237,-0.00008060,0.00000121,0.00008166,0.00008179,0.00000434,-0.00
 003256,0.00007656,0.00001557,-0.00002913,0.00007786,-0.00003281,-0.000
 08182,0.00019226,-0.00001409,0.00031169,-0.00008932,-0.00000232,-0.000
 00323,-0.00015493,0.00006099,-0.00044003,0.00002676,-0.00000142,-0.000
 00513,-0.00002244,0.00000066,-0.00000308,-0.00000921,0.00000149,0.0000
 0648,0.00003312,0.00000694,-0.00004281,-0.00003706,-0.00000720,0.00003
 357,-0.00001645,-0.00000270,0.00002094,-0.00000294,0.00002545,-0.00007
 754,0.00000769,-0.00001048,0.00003447,-0.00001616,-0.00002096,0.000043
 43,0.15598982,0.07277807,-0.19785553,-0.18890277,-0.08923820,0.2468292
 8,0.00143830,0.00018934,-0.00119059,0.00041662,-0.00011324,0.00066528,
 0.00003021,-0.00042123,-0.00037299,0.00008553,0.00027474,-0.00025115,-
 0.00006594,-0.00004695,0.00001537,-0.00869938,-0.00452020,0.01297292,0
 .00005185,0.00019152,-0.00009874,-0.00010236,-0.00018081,-0.00016736,0
 .00000263,-0.00051765,0.00013549,0.00003826,0.00013309,-0.00009305,-0.
 00196632,0.00070662,-0.00626372,0.00699386,0.00440322,-0.00300124,0.00
 005969,0.00012884,0.00005878,0.00000671,0.00049561,-0.00018501,0.00008
 475,0.00017720,-0.00002808,-0.00002610,-0.00005451,0.00006040,0.000347
 78,0.00024008,0.00007046,-0.00052130,-0.00028162,-0.00053132,0.0000368
 5,0.00002502,-0.00007062,-0.00027373,0.00026302,-0.00011235,-0.0003509
 4,0.00002904,0.00028557,0.00029959,0.00009228,0.00039007,0.00041274,0.
 00008726,-0.00003823,0.00036096,-0.00013323,-0.00021078,0.00025327,-0.
 00016843,0.00144953,-0.00018047,0.00003411,-0.00015394,-0.00030903,0.0
 0028963,-0.00201397,0.00016868,-0.00001806,0.00005037,-0.00013956,0.00
 000942,-0.00005688,-0.00007373,0.00001259,-0.00001743,0.00023097,0.000
 01633,-0.00009680,-0.00019654,-0.00002271,0.00010695,-0.00011094,-0.00
 000649,0.00005526,-0.00030345,0.00023584,-0.00007895,0.00014743,-0.000
 14709,0.00006086,0.00021683,-0.00013436,0.00003386,-0.15931311,-0.0291
 0523,-0.21507405,0.01295317,-0.00118119,0.03288931,0.14799611,0.000297
 35,0.00081957,-0.00021271,0.00020563,-0.00002504,0.00020347,0.00015792
 ,-0.00014327,-0.00000727,0.00003411,0.00004805,-0.00005650,-0.00004049
 ,0.00000071,-0.00000794,-0.00372304,-0.00006506,0.00344399,0.00001636,
 0.00001902,-0.00001232,-0.00007030,-0.00001682,-0.00008721,-0.00003371
 ,-0.00009138,0.00006173,0.00000055,0.00004513,-0.00003718,0.00049424,-
 0.00160227,-0.00192727,0.00405973,-0.00423490,-0.00052944,-0.00000531,
 0.00004279,-0.00000494,0.00008875,0.00008911,-0.00007348,0.00003026,0.
 00006432,-0.00002245,-0.00003745,-0.00001997,0.00002067,0.00000419,0.0
 0011285,-0.00011955,-0.00012614,-0.00005771,-0.00011627,0.00007820,-0.
 00001467,-0.00005537,-0.00009790,0.00013816,0.00001734,-0.00006194,0.0
 0015319,0.00009981,0.00007207,-0.00002657,0.00007728,0.00007859,-0.000
 08968,-0.00000861,0.00008355,-0.00012415,-0.00008315,0.00009860,-0.000
 40892,0.00046640,-0.00005290,0.00007816,-0.00004287,-0.00008911,0.0004
 1058,-0.00068943,0.00004156,-0.00002465,0.00001427,-0.00003526,0.00001
 285,-0.00001456,-0.00001796,0.00001080,-0.00000513,0.00005650,-0.00001
 701,-0.00002153,-0.00004537,0.00000899,0.00002581,-0.00003062,0.000006
 71,0.00001052,0.00009264,0.00007752,-0.00002119,-0.00005199,-0.0000220
 7,0.00002318,-0.00008734,-0.00003742,-0.00000346,-0.03423295,-0.021232
 88,-0.04131366,0.00383075,0.00624098,0.01648280,0.02901818,0.01987496,
 0.00004540,0.00013826,-0.00126889,0.00034308,0.00007052,0.00031194,-0.
 00009889,-0.00001192,-0.00000830,0.00003162,0.00008273,-0.00016444,0.0
 0007499,-0.00002695,-0.00006654,0.00332655,0.00011736,0.01073992,0.000
 00532,-0.00002718,-0.00005503,-0.00003746,-0.00006203,-0.00001911,0.00
 001954,-0.00009605,0.00004979,-0.00000757,0.00005214,-0.00002772,-0.00
 468947,-0.00137214,-0.00344455,0.00122635,0.00086502,-0.00992734,0.000
 01344,-0.00000275,0.00001173,-0.00000525,0.00007357,-0.00004747,0.0000
 1242,0.00002667,-0.00001005,-0.00000583,-0.00001039,0.00001105,-0.0001
 2023,0.00002987,-0.00002698,0.00000302,0.00001996,0.00007525,0.0000571
 7,-0.00001374,-0.00002154,-0.00004600,0.00008224,0.00000554,-0.0000620
 2,0.00002601,0.00006884,0.00009152,-0.00001179,-0.00012448,0.00005640,
 0.00000090,-0.00002550,0.00005707,-0.00004364,-0.00007148,0.00037869,0
 .00006376,0.00002172,-0.00009745,0.00000153,0.00004261,-0.00045529,-0.
 00008476,-0.00005319,0.00002090,-0.00000236,-0.00000514,-0.00001707,0.
 00000101,-0.00000127,-0.00000716,0.00000185,0.00000510,0.00002550,0.00
 000247,-0.00003188,-0.00002734,-0.00000325,0.00002513,-0.00001310,-0.0
 0000140,0.00001569,-0.00006290,0.00001280,-0.00007357,0.00003521,-0.00
 001420,0.00002483,0.00004287,-0.00000696,0.00005822,-0.16426599,-0.023
 57878,-0.34792065,-0.01665485,-0.00082463,-0.04344083,0.18080677,0.024
 52623,0.39536861\\0.00000091,-0.00001242,0.00002126,0.00000493,0.00001
 377,-0.00000832,-0.00001139,0.00000113,-0.00001059,-0.00000128,0.00000
 418,-0.00000537,-0.00000053,0.00000180,0.00000027,-0.00001473,0.000015
 68,-0.00001277,0.00000735,0.00000960,-0.00000139,0.00000222,-0.0000028
 6,0.00000254,-0.00000816,-0.00002331,0.00002227,0.00000041,0.00000575,
 0.00000313,-0.00001435,-0.00000300,0.00001526,0.00003687,0.00000535,0.
 00001709,-0.00000205,-0.00000432,0.00000464,0.00000094,0.00002281,0.00
 000567,0.00000199,0.00000042,0.00000220,0.00000596,-0.00000425,0.00001
 001,-0.00000028,-0.00001305,-0.00001593,0.00001618,-0.00000076,0.00000
 891,0.00000185,0.00000399,-0.00000192,-0.00000661,-0.00000500,0.000002
 06,-0.00002105,-0.00001273,0.00000203,-0.00000035,-0.00000168,-0.00001
 051,0.00001307,-0.00000517,0.00000041,0.00000560,0.00001134,-0.0000068
 6,-0.00000287,-0.00000466,0.00000078,0.00000177,-0.00000582,-0.0000062
 5,-0.00000938,-0.00000587,-0.00001581,0.00001398,-0.00001616,-0.000003
 15,-0.00000353,0.00000123,0.00000070,-0.00001877,0.00001762,0.00000148
 ,0.00000009,0.00000275,-0.00000689,-0.00000443,-0.00000400,0.00000603,
 0.00000560,-0.00000212,-0.00000212,0.00000287,-0.00000331,0.00001328,-
 0.00000051,0.00000014,-0.00000339,0.00000066,0.00000171,0.00000811,0.0
 0000178,-0.00000606,0.00002029,-0.00000813,0.00001226,-0.00003434,0.00
 000338,0.00000500,-0.00002281\\\@


 TRUST EVERYONE, BUT CUT THE CARDS.
 Job cpu time:       0 days  0 hours  2 minutes 51.3 seconds.
 File lengths (MBytes):  RWF=    683 Int=      0 D2E=      0 Chk=     14 Scr=      1
 Normal termination of Gaussian 09 at Wed Feb  6 09:37:22 2019.
