 Entering Gaussian System, Link 0=g09
 Initial command:
 /global/apps/Gaussian/09.d01/l1.exe "/global/work/gvi022/1443362/Gau-51459.inp" -scrdir="/global/work/gvi022/1443362/"
 Entering Link 1 = /global/apps/Gaussian/09.d01/l1.exe PID=     51460.
  
 Copyright (c) 1988,1990,1992,1993,1995,1998,2003,2009,2013,
            Gaussian, Inc.  All Rights Reserved.
  
 This is part of the Gaussian(R) 09 program.  It is based on
 the Gaussian(R) 03 system (copyright 2003, Gaussian, Inc.),
 the Gaussian(R) 98 system (copyright 1998, Gaussian, Inc.),
 the Gaussian(R) 94 system (copyright 1995, Gaussian, Inc.),
 the Gaussian 92(TM) system (copyright 1992, Gaussian, Inc.),
 the Gaussian 90(TM) system (copyright 1990, Gaussian, Inc.),
 the Gaussian 88(TM) system (copyright 1988, Gaussian, Inc.),
 the Gaussian 86(TM) system (copyright 1986, Carnegie Mellon
 University), and the Gaussian 82(TM) system (copyright 1983,
 Carnegie Mellon University). Gaussian is a federally registered
 trademark of Gaussian, Inc.
  
 This software contains proprietary and confidential information,
 including trade secrets, belonging to Gaussian, Inc.
  
 This software is provided under written license and may be
 used, copied, transmitted, or stored only in accord with that
 written license.
  
 The following legend is applicable only to US Government
 contracts under FAR:
  
                    RESTRICTED RIGHTS LEGEND
  
 Use, reproduction and disclosure by the US Government is
 subject to restrictions as set forth in subparagraphs (a)
 and (c) of the Commercial Computer Software - Restricted
 Rights clause in FAR 52.227-19.
  
 Gaussian, Inc.
 340 Quinnipiac St., Bldg. 40, Wallingford CT 06492
  
  
 ---------------------------------------------------------------
 Warning -- This program may not be used in any manner that
 competes with the business of Gaussian, Inc. or will provide
 assistance to any competitor of Gaussian, Inc.  The licensee
 of this program is prohibited from giving any competitor of
 Gaussian, Inc. access to this program.  By using this program,
 the user acknowledges that Gaussian, Inc. is engaged in the
 business of creating and licensing software in the field of
 computational chemistry and represents and warrants to the
 licensee that it is not a competitor of Gaussian, Inc. and that
 it will not use this program in any manner prohibited above.
 ---------------------------------------------------------------
  

 Cite this work as:
 Gaussian 09, Revision D.01,
 M. J. Frisch, G. W. Trucks, H. B. Schlegel, G. E. Scuseria, 
 M. A. Robb, J. R. Cheeseman, G. Scalmani, V. Barone, B. Mennucci, 
 G. A. Petersson, H. Nakatsuji, M. Caricato, X. Li, H. P. Hratchian, 
 A. F. Izmaylov, J. Bloino, G. Zheng, J. L. Sonnenberg, M. Hada, 
 M. Ehara, K. Toyota, R. Fukuda, J. Hasegawa, M. Ishida, T. Nakajima, 
 Y. Honda, O. Kitao, H. Nakai, T. Vreven, J. A. Montgomery, Jr., 
 J. E. Peralta, F. Ogliaro, M. Bearpark, J. J. Heyd, E. Brothers, 
 K. N. Kudin, V. N. Staroverov, T. Keith, R. Kobayashi, J. Normand, 
 K. Raghavachari, A. Rendell, J. C. Burant, S. S. Iyengar, J. Tomasi, 
 M. Cossi, N. Rega, J. M. Millam, M. Klene, J. E. Knox, J. B. Cross, 
 V. Bakken, C. Adamo, J. Jaramillo, R. Gomperts, R. E. Stratmann, 
 O. Yazyev, A. J. Austin, R. Cammi, C. Pomelli, J. W. Ochterski, 
 R. L. Martin, K. Morokuma, V. G. Zakrzewski, G. A. Voth, 
 P. Salvador, J. J. Dannenberg, S. Dapprich, A. D. Daniels, 
 O. Farkas, J. B. Foresman, J. V. Ortiz, J. Cioslowski, 
 and D. J. Fox, Gaussian, Inc., Wallingford CT, 2013.
 
 ******************************************
 Gaussian 09:  EM64L-G09RevD.01 24-Apr-2013
                 6-Feb-2019 
 ******************************************
 %LindaWorkers=cib46-2,cib46-6,cib46-8,cib47-4
 %NProcShared=20
 Will use up to   20 processors via shared memory.
 %chk=ChorA_PS_solv.chk
 SetLPE:  input flags=""
 SetLPE:    new flags=" -nodelist 'cib46-2.ibnet cib46-6.ibnet cib46-8.ibnet cib47-4.ibnet'"
 Will use up to    4 processors via Linda.
 ----------------------------------------------------------------------
 #p rb3lyp/6-31g(d,p) scrf=(iefpcm,solvent=water) geom=connectivity emp
 iricaldispersion=gd3
 ----------------------------------------------------------------------
 1/38=1,57=2/1;
 2/12=2,17=6,18=5,40=1/2;
 3/5=1,6=6,7=101,11=2,16=1,25=1,30=1,70=2201,72=1,74=-5,116=1,124=31/1,2,3;
 4//1;
 5/5=2,38=5,53=1/2;
 6/7=2,8=2,9=2,10=2,28=1/1;
 99/5=1,9=1/99;
 Leave Link    1 at Wed Feb  6 11:38:26 2019, MaxMem=           0 cpu:         1.6
 (Enter /global/apps/Gaussian/09.d01/l101.exe)
 -------------------
 Title Card Required
 -------------------
 Symbolic Z-matrix:
 Charge = -2 Multiplicity = 1
 C                    -1.09064  -0.21448  -0.32619 
 C                    -0.48214   0.63763  -1.40819 
 C                    -1.05405   0.49483   1.00655 
 C                     0.26936   1.71561  -1.17859 
 H                    -0.68387   0.3065   -2.42142 
 C                    -2.59237  -0.60408  -0.66822 
 C                    -0.30642   1.57827   1.2365 
 H                    -1.62742   0.03844   1.8061 
 C                     0.5982    2.19252   0.20263 
 H                     0.71634   2.27885  -1.99441 
 O                    -3.03155  -0.25297  -1.78635 
 O                    -3.19561  -1.25912   0.2325 
 H                    -0.28617   2.02852   2.22867 
 O                     0.50028   3.65673   0.19932 
 H                     1.64026   1.92198   0.43303 
 H                     0.79626   3.94415   1.07407 
 C                    -0.31027  -1.58553  -0.24302 
 C                     0.95589  -1.49171   0.58883 
 H                    -0.06056  -1.90957  -1.25673 
 H                    -0.96613  -2.32019   0.22656 
 C                     2.25114  -1.02622  -0.11489 
 O                     0.9504   -1.80392   1.77502 
 O                     2.87466  -0.05484   0.393 
 O                     2.53706  -1.70762  -1.13458 
 O                    -2.01148  -2.22874   2.64639 
 H                    -1.065    -2.14088   2.44773 
 H                    -2.45287  -1.93317   1.82167 
 O                     5.71378  -0.65712   0.70096 
 H                     4.77592  -0.50188   0.91444 
 H                     5.64889  -0.65349  -0.27151 
 O                     4.66282  -0.16333  -1.93911 
 H                     3.99538  -0.88637  -1.84324 
 H                     4.27184   0.43749  -1.28239 
 O                    -2.24119   4.06328   0.88198 
 H                    -1.35943   4.04893   0.46568 
 H                    -2.46011   3.12099   0.87137 
 O                    -5.56004  -1.5065   -1.38885 
 H                    -4.87289  -0.98957  -1.85328 
 H                    -5.03591  -1.65856  -0.58105 
 
 NAtoms=     39 NQM=       39 NQMF=       0 NMMI=      0 NMMIF=      0
                NMic=       0 NMicF=      0.
                    Isotopes and Nuclear Properties:
 (Nuclear quadrupole moments (NQMom) in fm**2, nuclear magnetic moments (NMagM)
  in nuclear magnetons)

  Atom         1           2           3           4           5           6           7           8           9          10
 IAtWgt=          12          12          12          12           1          12          12           1          12           1
 AtmWgt=  12.0000000  12.0000000  12.0000000  12.0000000   1.0078250  12.0000000  12.0000000   1.0078250  12.0000000   1.0078250
 NucSpn=           0           0           0           0           1           0           0           1           0           1
 AtZEff=   0.0000000   0.0000000   0.0000000   0.0000000   0.0000000   0.0000000   0.0000000   0.0000000   0.0000000   0.0000000
 NQMom=    0.0000000   0.0000000   0.0000000   0.0000000   0.0000000   0.0000000   0.0000000   0.0000000   0.0000000   0.0000000
 NMagM=    0.0000000   0.0000000   0.0000000   0.0000000   2.7928460   0.0000000   0.0000000   2.7928460   0.0000000   2.7928460
 AtZNuc=   6.0000000   6.0000000   6.0000000   6.0000000   1.0000000   6.0000000   6.0000000   1.0000000   6.0000000   1.0000000

  Atom        11          12          13          14          15          16          17          18          19          20
 IAtWgt=          16          16           1          16           1           1          12          12           1           1
 AtmWgt=  15.9949146  15.9949146   1.0078250  15.9949146   1.0078250   1.0078250  12.0000000  12.0000000   1.0078250   1.0078250
 NucSpn=           0           0           1           0           1           1           0           0           1           1
 AtZEff=   0.0000000   0.0000000   0.0000000   0.0000000   0.0000000   0.0000000   0.0000000   0.0000000   0.0000000   0.0000000
 NQMom=    0.0000000   0.0000000   0.0000000   0.0000000   0.0000000   0.0000000   0.0000000   0.0000000   0.0000000   0.0000000
 NMagM=    0.0000000   0.0000000   2.7928460   0.0000000   2.7928460   2.7928460   0.0000000   0.0000000   2.7928460   2.7928460
 AtZNuc=   8.0000000   8.0000000   1.0000000   8.0000000   1.0000000   1.0000000   6.0000000   6.0000000   1.0000000   1.0000000

  Atom        21          22          23          24          25          26          27          28          29          30
 IAtWgt=          12          16          16          16          16           1           1          16           1           1
 AtmWgt=  12.0000000  15.9949146  15.9949146  15.9949146  15.9949146   1.0078250   1.0078250  15.9949146   1.0078250   1.0078250
 NucSpn=           0           0           0           0           0           1           1           0           1           1
 AtZEff=   0.0000000   0.0000000   0.0000000   0.0000000   0.0000000   0.0000000   0.0000000   0.0000000   0.0000000   0.0000000
 NQMom=    0.0000000   0.0000000   0.0000000   0.0000000   0.0000000   0.0000000   0.0000000   0.0000000   0.0000000   0.0000000
 NMagM=    0.0000000   0.0000000   0.0000000   0.0000000   0.0000000   2.7928460   2.7928460   0.0000000   2.7928460   2.7928460
 AtZNuc=   6.0000000   8.0000000   8.0000000   8.0000000   8.0000000   1.0000000   1.0000000   8.0000000   1.0000000   1.0000000

  Atom        31          32          33          34          35          36          37          38          39
 IAtWgt=          16           1           1          16           1           1          16           1           1
 AtmWgt=  15.9949146   1.0078250   1.0078250  15.9949146   1.0078250   1.0078250  15.9949146   1.0078250   1.0078250
 NucSpn=           0           1           1           0           1           1           0           1           1
 AtZEff=   0.0000000   0.0000000   0.0000000   0.0000000   0.0000000   0.0000000   0.0000000   0.0000000   0.0000000
 NQMom=    0.0000000   0.0000000   0.0000000   0.0000000   0.0000000   0.0000000   0.0000000   0.0000000   0.0000000
 NMagM=    0.0000000   2.7928460   2.7928460   0.0000000   2.7928460   2.7928460   0.0000000   2.7928460   2.7928460
 AtZNuc=   8.0000000   1.0000000   1.0000000   8.0000000   1.0000000   1.0000000   8.0000000   1.0000000   1.0000000
 Leave Link  101 at Wed Feb  6 11:38:26 2019, MaxMem=    33554432 cpu:         3.9
 (Enter /global/apps/Gaussian/09.d01/l202.exe)
                          Input orientation:                          
 ---------------------------------------------------------------------
 Center     Atomic      Atomic             Coordinates (Angstroms)
 Number     Number       Type             X           Y           Z
 ---------------------------------------------------------------------
      1          6           0       -1.090640   -0.214478   -0.326192
      2          6           0       -0.482136    0.637630   -1.408189
      3          6           0       -1.054054    0.494825    1.006546
      4          6           0        0.269357    1.715608   -1.178591
      5          1           0       -0.683873    0.306497   -2.421416
      6          6           0       -2.592367   -0.604079   -0.668215
      7          6           0       -0.306418    1.578271    1.236499
      8          1           0       -1.627420    0.038436    1.806101
      9          6           0        0.598202    2.192516    0.202632
     10          1           0        0.716342    2.278853   -1.994412
     11          8           0       -3.031550   -0.252970   -1.786347
     12          8           0       -3.195605   -1.259118    0.232499
     13          1           0       -0.286173    2.028524    2.228665
     14          8           0        0.500283    3.656725    0.199323
     15          1           0        1.640255    1.921979    0.433029
     16          1           0        0.796259    3.944146    1.074067
     17          6           0       -0.310267   -1.585531   -0.243020
     18          6           0        0.955888   -1.491706    0.588832
     19          1           0       -0.060556   -1.909570   -1.256727
     20          1           0       -0.966129   -2.320187    0.226563
     21          6           0        2.251138   -1.026225   -0.114891
     22          8           0        0.950402   -1.803922    1.775023
     23          8           0        2.874661   -0.054835    0.392995
     24          8           0        2.537063   -1.707623   -1.134579
     25          8           0       -2.011481   -2.228736    2.646387
     26          1           0       -1.065003   -2.140885    2.447732
     27          1           0       -2.452870   -1.933169    1.821666
     28          8           0        5.713784   -0.657120    0.700961
     29          1           0        4.775916   -0.501884    0.914436
     30          1           0        5.648892   -0.653487   -0.271514
     31          8           0        4.662822   -0.163328   -1.939107
     32          1           0        3.995379   -0.886374   -1.843235
     33          1           0        4.271844    0.437491   -1.282388
     34          8           0       -2.241187    4.063283    0.881979
     35          1           0       -1.359430    4.048929    0.465679
     36          1           0       -2.460114    3.120987    0.871373
     37          8           0       -5.560035   -1.506500   -1.388853
     38          1           0       -4.872885   -0.989566   -1.853276
     39          1           0       -5.035914   -1.658559   -0.581046
 ---------------------------------------------------------------------
                    Distance matrix (angstroms):
                    1          2          3          4          5
     1  C    0.000000
     2  C    1.505683   0.000000
     3  C    1.510179   2.485645   0.000000
     4  C    2.510261   1.333977   2.831352   0.000000
     5  H    2.197007   1.084885   3.453031   2.106859   0.000000
     6  C    1.588695   2.557827   2.525633   3.718991   2.746855
     7  C    2.504188   2.812482   1.336298   2.486572   3.891044
     8  H    2.213317   3.464444   1.084586   3.913956   4.339820
     9  C    2.987551   2.485869   2.501676   1.497784   3.476552
    10  H    3.502120   2.115093   3.914436   1.087476   2.456242
    11  O    2.429129   2.726845   3.502847   3.891099   2.495577
    12  O    2.415427   3.694919   2.874318   4.779763   3.975325
    13  H    3.493640   3.898679   2.106050   3.466399   4.974615
    14  O    4.218224   3.558676   3.614579   2.391633   4.415261
    15  H    3.549458   3.089366   3.102417   2.125857   4.019852
    16  H    4.776533   4.327694   3.914848   3.212238   5.257536
    17  C    1.579774   2.515870   2.538211   3.479767   2.909426
    18  C    2.580089   3.254240   2.856686   3.725852   3.870910
    19  H    2.190960   2.586290   3.448269   3.640998   2.579918
    20  H    2.180608   3.413992   2.922396   4.448429   3.740445
    21  C    3.445441   3.451350   3.807297   3.546345   3.963647
    22  O    3.332760   4.259833   3.145257   4.644863   4.973412
    23  O    4.033154   3.871932   4.014147   3.520222   4.551333
    24  O    4.005396   3.832837   4.725602   4.106451   4.010867
    25  O    3.706941   5.195627   3.320170   5.948994   5.820015
    26  H    3.377330   4.788320   3.004015   5.459237   5.462924
    27  H    3.069668   4.574359   2.918263   5.452122   5.113629
    28  O    6.895735   6.671905   6.871971   6.229313   7.183858
    29  H    6.003186   5.860050   5.915274   5.441241   6.449084
    30  H    6.754037   6.367772   6.919649   5.947672   6.756298
    31  O    5.975486   5.233928   6.464728   4.838525   5.388924
    32  H    5.349809   4.749736   5.960347   4.592962   4.863397
    33  H    5.485947   4.759854   5.797214   4.202887   5.086617
    34  O    4.591587   4.480427   3.762804   4.007538   5.239378
    35  H    4.344646   3.989735   3.607970   3.286481   4.774672
    36  H    3.799335   3.908435   2.981946   3.691538   4.681757
    37  O    4.772218   5.512053   5.481524   6.663933   5.303782
    38  H    4.151882   4.703674   4.996546   5.849429   4.421582
    39  H    4.208979   5.166579   4.797157   6.315692   5.117486
                    6          7          8          9         10
     6  C    0.000000
     7  C    3.690007   0.000000
     8  H    2.732433   2.107269   0.000000
     9  C    4.331172   1.504831   3.487774   0.000000
    10  H    4.584501   3.460584   4.995657   2.201911   0.000000
    11  O    1.251550   4.462890   3.868098   4.807446   4.527705
    12  O    1.266593   4.172073   2.572756   5.129097   5.725356
    13  H    4.543241   1.089739   2.436792   2.216714   4.347652
    14  O    5.335875   2.458957   4.494538   1.467483   2.599555
    15  H    5.050623   2.133831   4.013821   1.100976   2.621725
    16  H    5.933353   2.615272   4.654532   1.966427   3.492156
    17  C    2.520321   3.492654   2.927637   3.911210   4.365176
    18  C    3.867578   3.381959   3.239839   3.721637   4.576860
    19  H    2.908732   4.294375   3.953569   4.403499   4.323267
    20  H    2.527905   4.080829   2.914678   4.776211   5.377230
    21  C    4.893252   3.892396   4.457233   3.632260   4.100212
    22  O    4.467689   3.648127   3.168661   4.309057   5.561697
    23  O    5.596091   3.673935   4.719566   3.204542   3.975444
    24  O    5.267481   4.950201   5.388807   4.556139   4.466131
    25  O    3.736780   4.403218   2.448194   5.685935   7.021139
    26  H    3.795226   3.984301   2.340394   5.156073   6.514593
    27  H    2.825853   4.156908   2.137484   5.380668   6.507495
    28  O    8.418408   6.444114   7.456434   5.876899   6.392136
    29  H    7.537030   5.500990   6.487659   5.021927   5.716121
    30  H    8.250949   6.536097   7.598681   5.816702   5.991414
    31  O    7.378834   6.149064   7.323554   5.163156   4.641337
    32  H    6.697668   5.836497   6.766742   5.020552   4.560000
    33  H    6.969897   5.348519   6.670781   4.333710   4.066840
    34  O    4.930588   3.169274   4.174938   3.467479   4.494974
    35  H    4.945334   2.794128   4.237051   2.710680   3.673424
    36  H    4.032857   2.674266   3.327043   3.265359   4.360251
    37  O    3.184452   6.633911   5.297171   7.357950   7.354489
    38  H    2.598794   6.082197   4.998087   6.654712   6.476260
    39  H    2.662790   6.012376   4.494006   6.869366   7.112613
                   11         12         13         14         15
    11  O    0.000000
    12  O    2.261634   0.000000
    13  H    5.372395   4.822661   0.000000
    14  O    5.630492   6.150301   2.718047   0.000000
    15  H    5.610864   5.791816   2.635675   2.088899   0.000000
    16  H    6.360021   6.611896   2.484827   0.967155   2.283072
    17  C    3.400435   2.942421   4.378493   5.322960   4.069915
    18  C    4.803707   4.173244   4.077228   5.183207   3.485094
    19  H    3.442619   3.531206   5.263786   5.780853   4.519823
    20  H    3.548402   2.469102   4.835498   6.154233   4.983155
    21  C    5.594505   5.462777   4.611040   5.009416   3.060278
    22  O    5.562801   4.457080   4.052475   5.701237   4.019849
    23  O    6.298581   6.190653   4.207249   4.410313   2.330913
    24  O    5.792259   5.910460   5.765489   5.891010   4.054093
    25  O    4.959166   2.858175   4.612531   6.850966   5.955045
    26  H    5.035768   3.197536   4.247180   6.412312   5.280560
    27  H    4.021902   1.879216   4.533788   6.526869   5.791731
    28  O    9.101149   8.941984   6.748781   6.785388   4.828786
    29  H    8.265150   8.036392   5.809897   6.007200   3.992397
    30  H    8.820726   8.879524   6.976322   6.731106   4.816490
    31  O    7.696410   8.226269   6.831332   6.040896   4.371664
    32  H    7.055648   7.493855   6.588527   6.085022   4.314491
    33  H    7.353249   7.806162   5.969455   5.175288   3.474424
    34  O    5.135628   5.446163   3.126642   2.854289   4.455595
    35  H    5.135557   5.621501   2.888258   1.919193   3.677376
    36  H    4.332851   4.487140   2.785989   3.082631   4.294507
    37  O    2.850013   2.877587   7.307288   8.118414   8.180336
    38  H    1.984331   2.690053   6.841713   7.394060   7.491681
    39  H    2.728719   2.051377   6.636949   7.714318   7.643287
                   16         17         18         19         20
    16  H    0.000000
    17  C    5.791066   0.000000
    18  C    5.459800   1.517870   0.000000
    19  H    6.358673   1.093142   2.147989   0.000000
    20  H    6.562480   1.091047   2.124092   1.785726   0.000000
    21  C    5.313651   2.624888   1.545824   2.725439   3.484499
    22  O    5.792701   2.389452   1.226604   3.197609   2.517409
    23  O    4.558011   3.590447   2.405128   3.844102   4.462195
    24  O    6.312766   2.986147   2.348804   2.608319   3.807925
    25  O    6.961326   3.414164   3.685380   4.375188   2.637550
    26  H    6.509904   2.849244   2.821514   3.845184   2.230587
    27  H    6.757113   2.995752   3.651630   3.898747   2.214619
    28  O    6.744843   6.167839   4.831840   6.224482   6.900151
    29  H    5.969115   5.327594   3.959593   5.485161   6.062217
    30  H    6.818861   6.031674   4.844285   5.928422   6.839918
    31  O    6.395379   5.443435   4.679361   5.081860   6.405252
    32  H    6.486828   4.646299   3.939528   4.223924   5.563852
    33  H    5.470759   5.115530   4.268352   4.927377   6.108853
    34  O    3.045845   6.074798   6.416005   6.708516   6.542479
    35  H    2.242345   5.774958   6.006205   6.336992   6.385726
    36  H    3.364913   5.292922   5.746811   5.966003   5.679273
    37  O    8.728000   5.373941   6.809457   5.515813   4.937168
    38  H    8.065361   4.874996   6.339608   4.935665   4.621583
    39  H    8.254935   4.738284   6.107221   5.027299   4.201563
                   21         22         23         24         25
    21  C    0.000000
    22  O    2.422499   0.000000
    23  O    1.261082   2.944839   0.000000
    24  O    1.259293   3.315502   2.275777   0.000000
    25  O    5.219254   3.116487   5.803275   5.937720   0.000000
    26  H    4.336622   2.151264   4.908615   5.098583   0.971083
    27  H    5.167252   3.406045   5.826820   5.804282   0.980994
    28  O    3.576558   5.015832   2.918597   3.816323   8.119999
    29  H    2.776500   4.131643   2.021515   3.265690   7.214598
    30  H    3.421724   5.252392   2.914844   3.396993   8.347267
    31  O    3.144610   5.501670   2.940747   2.747902   8.356972
    32  H    2.459493   4.817216   2.635942   1.817506   7.618465
    33  H    2.754772   5.040205   2.236384   2.762757   7.875545
    34  O    6.861328   6.738536   6.585583   7.758965   6.538762
    35  H    6.255434   6.426941   5.896922   7.133118   6.677555
    36  H    6.353580   6.058294   6.226919   7.232641   5.654333
    37  O    7.928939   7.244609   8.742220   8.103586   5.421902
    38  H    7.333146   6.909298   8.120586   7.479269   5.474499
    39  H    7.329275   6.434918   8.130060   7.593338   4.459666
                   26         27         28         29         30
    26  H    0.000000
    27  H    1.536645   0.000000
    28  O    7.155747   8.341374   0.000000
    29  H    6.257288   7.424755   0.974303   0.000000
    30  H    7.394798   8.465077   0.974644   1.480388   0.000000
    31  O    7.480847   8.240681   2.884148   2.875781   1.998363
    32  H    6.752308   7.490474   3.078702   2.891681   2.293174
    33  H    7.003125   7.776693   2.685337   2.441833   2.026909
    34  O    6.505897   6.073323   9.251840   8.371472   9.264546
    35  H    6.506076   6.230554   8.498977   7.652042   8.471880
    36  H    5.667322   5.142723   9.006428   8.092415   9.017141
    37  O    5.943664   4.488202  11.497294  10.637024  11.296731
    38  H    5.858683   4.500229  10.895513  10.049747  10.645314
    39  H    5.017397   3.538439  10.872094   9.992316  10.736436
                   31         32         33         34         35
    31  O    0.000000
    32  H    0.988669   0.000000
    33  H    0.972176   1.464104   0.000000
    34  O    8.572520   8.415501   7.762115   0.000000
    35  H    7.732634   7.639521   6.914439   0.975196   0.000000
    36  H    8.331971   8.068546   7.560363   0.967452   1.495717
    37  O   10.325391   9.586290  10.022788   6.869783   7.207438
    38  H    9.571820   8.868870   9.272997   6.319710   6.565695
    39  H    9.906842   9.151702   9.566591   6.533790   6.869322
                   36         37         38         39
    36  H    0.000000
    37  O    6.010971   0.000000
    38  H    5.490157   0.977284   0.000000
    39  H    5.620349   0.974873   1.446616   0.000000
 Stoichiometry    C10H18O11(2-)
 Framework group  C1[X(C10H18O11)]
 Deg. of freedom   111
 Full point group                 C1      NOp   1
 Largest Abelian subgroup         C1      NOp   1
 Largest concise Abelian subgroup C1      NOp   1
                         Standard orientation:                         
 ---------------------------------------------------------------------
 Center     Atomic      Atomic             Coordinates (Angstroms)
 Number     Number       Type             X           Y           Z
 ---------------------------------------------------------------------
      1          6           0       -1.090640   -0.214478   -0.326192
      2          6           0       -0.482136    0.637630   -1.408189
      3          6           0       -1.054054    0.494825    1.006546
      4          6           0        0.269357    1.715608   -1.178591
      5          1           0       -0.683873    0.306497   -2.421416
      6          6           0       -2.592367   -0.604079   -0.668215
      7          6           0       -0.306418    1.578271    1.236499
      8          1           0       -1.627420    0.038436    1.806101
      9          6           0        0.598202    2.192516    0.202632
     10          1           0        0.716342    2.278853   -1.994412
     11          8           0       -3.031550   -0.252970   -1.786347
     12          8           0       -3.195605   -1.259118    0.232499
     13          1           0       -0.286173    2.028524    2.228665
     14          8           0        0.500283    3.656725    0.199323
     15          1           0        1.640255    1.921979    0.433029
     16          1           0        0.796259    3.944146    1.074067
     17          6           0       -0.310267   -1.585531   -0.243020
     18          6           0        0.955888   -1.491706    0.588832
     19          1           0       -0.060556   -1.909570   -1.256727
     20          1           0       -0.966129   -2.320187    0.226563
     21          6           0        2.251138   -1.026225   -0.114891
     22          8           0        0.950402   -1.803922    1.775023
     23          8           0        2.874661   -0.054835    0.392995
     24          8           0        2.537063   -1.707623   -1.134579
     25          8           0       -2.011481   -2.228736    2.646387
     26          1           0       -1.065003   -2.140885    2.447732
     27          1           0       -2.452870   -1.933169    1.821666
     28          8           0        5.713784   -0.657120    0.700961
     29          1           0        4.775916   -0.501884    0.914436
     30          1           0        5.648892   -0.653487   -0.271514
     31          8           0        4.662822   -0.163328   -1.939107
     32          1           0        3.995379   -0.886374   -1.843235
     33          1           0        4.271844    0.437491   -1.282388
     34          8           0       -2.241187    4.063283    0.881979
     35          1           0       -1.359430    4.048929    0.465679
     36          1           0       -2.460114    3.120987    0.871373
     37          8           0       -5.560035   -1.506500   -1.388853
     38          1           0       -4.872885   -0.989566   -1.853276
     39          1           0       -5.035914   -1.658559   -0.581046
 ---------------------------------------------------------------------
 Rotational constants (GHZ):      0.3407654      0.1742821      0.1471073
 Leave Link  202 at Wed Feb  6 11:38:26 2019, MaxMem=    33554432 cpu:         1.1
 (Enter /global/apps/Gaussian/09.d01/l301.exe)
 Standard basis: 6-31G(d,p) (6D, 7F)
 Ernie: Thresh=  0.10000D-02 Tol=  0.10000D-05 Strict=F.
 There are   405 symmetry adapted cartesian basis functions of A   symmetry.
 There are   405 symmetry adapted basis functions of A   symmetry.
   405 basis functions,   714 primitive gaussians,   405 cartesian basis functions
    84 alpha electrons       84 beta electrons
       nuclear repulsion energy      1870.8185359794 Hartrees.
 IExCor=  402 DFT=T Ex+Corr=B3LYP ExCW=0 ScaHFX=  0.200000
 ScaDFX=  0.800000  0.720000  1.000000  0.810000 ScalE2=  1.000000  1.000000
 IRadAn=      0 IRanWt=     -1 IRanGd=            0 ICorTp=0 IEmpDi=131
 NAtoms=   39 NActive=   39 NUniq=   39 SFac= 1.00D+00 NAtFMM=   60 NAOKFM=F Big=F
 Integral buffers will be    131072 words long.
 Raffenetti 2 integral format.
 Two-electron integral symmetry is turned on.
 R6Disp:  Grimme-D3 Dispersion energy=       -0.0505500741 Hartrees.
 Nuclear repulsion after empirical dispersion term =     1870.7679859053 Hartrees.
 ------------------------------------------------------------------------------
 Polarizable Continuum Model (PCM)
 =================================
 Model                : PCM (using non-symmetric T matrix).
 Atomic radii         : UFF (Universal Force Field).
 Polarization charges : Total charges.
 Charge compensation  : None.
 Solution method      : On-the-fly selection.
 Cavity type          : Scaled VdW (van der Waals Surface) (Alpha=1.100).
 Cavity algorithm     : GePol (No added spheres)
                        Default sphere list used, NSphG=   39.
                        Lebedev-Laikov grids with approx.  5.0 points / Ang**2.
                        Smoothing algorithm: Karplus/York (Gamma=1.0000).
                        Polarization charges: spherical gaussians, with
                                              point-specific exponents (IZeta= 3).
                        Self-potential: point-specific (ISelfS= 7).
                        Self-field    : sphere-specific E.n sum rule (ISelfD= 2).
 Solvent              : Water, Eps=  78.355300 Eps(inf)=   1.777849
 ------------------------------------------------------------------------------
 GePol: Number of generator spheres                  =      39
 GePol: Total number of spheres                      =      39
 GePol: Number of exposed spheres                    =      39 (100.00%)
 GePol: Number of points                             =    2991
 GePol: Average weight of points                     =       0.13
 GePol: Minimum weight of points                     =   0.53D-09
 GePol: Maximum weight of points                     =    0.20577
 GePol: Number of points with low weight             =     183
 GePol: Fraction of low-weight points (<1% of avg)   =       6.12%
 GePol: Cavity surface area                          =    382.536 Ang**2
 GePol: Cavity volume                                =    416.330 Ang**3
 Leave Link  301 at Wed Feb  6 11:38:26 2019, MaxMem=    33554432 cpu:         2.3
 (Enter /global/apps/Gaussian/09.d01/linda-exe/../l302.exel)
 NPDir=0 NMtPBC=     1 NCelOv=     1 NCel=       1 NClECP=     1 NCelD=      1
         NCelK=      1 NCelE2=     1 NClLst=     1 CellRange=     0.0.
 One-electron integrals computed using PRISM.
 PrsmSu:  requested number of processors reduced to:   8 ShMem   1 Linda.
 NBasis=   405 RedAO= T EigKep=  7.29D-04  NBF=   405
 NBsUse=   405 1.00D-06 EigRej= -1.00D+00 NBFU=   405
 Precomputing XC quadrature grid using
 IXCGrd= 4 IRadAn=           0 IRanWt=          -1 IRanGd=           0 AccXCQ= 0.00D+00.
 Generated NRdTot=       0 NPtTot=           0 NUsed=           0 NTot=          32
 NSgBfM=   398   398   398   398   398 MxSgAt=    39 MxSgA2=    39.
 Leave Link  302 at Wed Feb  6 11:38:29 2019, MaxMem=    33554432 cpu:        12.1
 (Enter /global/apps/Gaussian/09.d01/l303.exe)
 DipDrv:  MaxL=1.
 Leave Link  303 at Wed Feb  6 11:38:29 2019, MaxMem=    33554432 cpu:         1.7
 (Enter /global/apps/Gaussian/09.d01/linda-exe/../l401.exel)
 ExpMin= 1.61D-01 ExpMax= 5.48D+03 ExpMxC= 8.25D+02 IAcc=1 IRadAn=         1 AccDes= 0.00D+00
 Harris functional with IExCor=  402 and IRadAn=       1 diagonalized for initial guess.
 HarFok:  IExCor=  402 AccDes= 0.00D+00 IRadAn=         1 IDoV= 1 UseB2=F ITyADJ=14
 ICtDFT=  3500011 ScaDFX=  1.000000  1.000000  1.000000  1.000000
 FoFCou: FMM=F IPFlag=           0 FMFlag=      100000 FMFlg1=           0
         NFxFlg=           0 DoJE=T BraDBF=F KetDBF=T FulRan=T
         wScrn=  0.000000 ICntrl=     500 IOpCl=  0 I1Cent=   200000004 NGrid=           0
         NMat0=    1 NMatS0=      1 NMatT0=    0 NMatD0=    1 NMtDS0=    0 NMtDT0=    0
 Petite list used in FoFCou.
 Harris En= -1220.01399558667    
 JPrj=0 DoOrth=F DoCkMO=F.
 Leave Link  401 at Wed Feb  6 11:38:30 2019, MaxMem=    33554432 cpu:        14.4
 (Enter /global/apps/Gaussian/09.d01/linda-exe/../l502.exel)
 Closed shell SCF:
 Using DIIS extrapolation, IDIIS=  1040.
 Integral symmetry usage will be decided dynamically.
 IVT=      521776 IEndB=      521776 NGot=    33554432 MDV=    33213727
 LenX=    33213727 LenY=    33049261
 Requested convergence on RMS density matrix=1.00D-08 within 128 cycles.
 Requested convergence on MAX density matrix=1.00D-06.
 Requested convergence on             energy=1.00D-06.
 No special actions if energy rises.
 Fock matrices will be formed incrementally for  20 cycles.

 Cycle   1  Pass 1  IDiag  1:
 FoFJK:  IHMeth= 1 ICntrl=       0 DoSepK=F KAlg= 0 I1Cent=   0 FoldK=F
 IRaf= 700000000 NMat=   1 IRICut=       1 DoRegI=T DoRafI=F ISym2E= 0.
 FoFCou: FMM=F IPFlag=           0 FMFlag=      100000 FMFlg1=           0
         NFxFlg=           0 DoJE=F BraDBF=F KetDBF=F FulRan=T
         wScrn=  0.000000 ICntrl=       0 IOpCl=  0 I1Cent=           0 NGrid=           0
         NMat0=    1 NMatS0=      1 NMatT0=    0 NMatD0=    1 NMtDS0=    0 NMtDT0=    0
 Symmetry not used in FoFCou.
 Inv3:  Mode=2 IEnd=    17892162.
 Iteration    1 A*A^-1 deviation from unit magnitude is 8.22D-15 for   1415.
 Iteration    1 A*A^-1 deviation from orthogonality  is 6.88D-15 for   2444    673.
 Iteration    1 A^-1*A deviation from unit magnitude is 8.88D-15 for   2830.
 Iteration    1 A^-1*A deviation from orthogonality  is 6.25D-11 for   1275   1204.
 E= -1218.95652559670    
 DIIS: error= 4.04D-02 at cycle   1 NSaved=   1.
 NSaved= 1 IEnMin= 1 EnMin= -1218.95652559670     IErMin= 1 ErrMin= 4.04D-02
 ErrMax= 4.04D-02  0.00D+00 EMaxC= 1.00D-01 BMatC= 1.03D+00 BMatP= 1.03D+00
 IDIUse=3 WtCom= 5.96D-01 WtEn= 4.04D-01
 Coeff-Com:  0.100D+01
 Coeff-En:   0.100D+01
 Coeff:      0.100D+01
 Gap=     0.135 Goal=   None    Shift=    0.000
 GapD=    0.135 DampG=1.000 DampE=0.500 DampFc=0.5000 IDamp=-1.
 Damping current iteration by 5.00D-01
 RMSDP=4.44D-03 MaxDP=1.70D-01              OVMax= 1.99D-01

 Cycle   2  Pass 1  IDiag  1:
 RMSU=  2.21D-03    CP:  9.86D-01
 E= -1219.23498865984     Delta-E=       -0.278463063139 Rises=F Damp=T
 DIIS: error= 8.70D-03 at cycle   2 NSaved=   2.
 NSaved= 2 IEnMin= 2 EnMin= -1219.23498865984     IErMin= 2 ErrMin= 8.70D-03
 ErrMax= 8.70D-03  0.00D+00 EMaxC= 1.00D-01 BMatC= 7.98D-02 BMatP= 1.03D+00
 IDIUse=3 WtCom= 9.13D-01 WtEn= 8.70D-02
 Coeff-Com:  0.170D+00 0.830D+00
 Coeff-En:   0.271D+00 0.729D+00
 Coeff:      0.178D+00 0.822D+00
 Gap=     0.197 Goal=   None    Shift=    0.000
 RMSDP=9.86D-04 MaxDP=5.41D-02 DE=-2.78D-01 OVMax= 1.45D-01

 Cycle   3  Pass 1  IDiag  1:
 RMSU=  9.29D-04    CP:  9.82D-01  8.52D-01
 E= -1219.69687217615     Delta-E=       -0.461883516313 Rises=F Damp=F
 DIIS: error= 7.94D-03 at cycle   3 NSaved=   3.
 NSaved= 3 IEnMin= 3 EnMin= -1219.69687217615     IErMin= 3 ErrMin= 7.94D-03
 ErrMax= 7.94D-03  0.00D+00 EMaxC= 1.00D-01 BMatC= 4.04D-02 BMatP= 7.98D-02
 IDIUse=3 WtCom= 9.21D-01 WtEn= 7.94D-02
 Coeff-Com:  0.674D-01 0.433D+00 0.500D+00
 Coeff-En:   0.000D+00 0.000D+00 0.100D+01
 Coeff:      0.620D-01 0.399D+00 0.539D+00
 Gap=     0.178 Goal=   None    Shift=    0.000
 RMSDP=6.71D-04 MaxDP=4.21D-02 DE=-4.62D-01 OVMax= 5.99D-02

 Cycle   4  Pass 1  IDiag  1:
 RMSU=  4.05D-04    CP:  9.86D-01  8.65D-01  4.29D-01
 E= -1219.72326390671     Delta-E=       -0.026391730560 Rises=F Damp=F
 DIIS: error= 4.49D-03 at cycle   4 NSaved=   4.
 NSaved= 4 IEnMin= 4 EnMin= -1219.72326390671     IErMin= 4 ErrMin= 4.49D-03
 ErrMax= 4.49D-03  0.00D+00 EMaxC= 1.00D-01 BMatC= 1.25D-02 BMatP= 4.04D-02
 IDIUse=3 WtCom= 9.55D-01 WtEn= 4.49D-02
 Coeff-Com:  0.154D-01 0.949D-01 0.353D+00 0.537D+00
 Coeff-En:   0.000D+00 0.000D+00 0.245D+00 0.755D+00
 Coeff:      0.148D-01 0.907D-01 0.348D+00 0.546D+00
 Gap=     0.179 Goal=   None    Shift=    0.000
 RMSDP=2.62D-04 MaxDP=2.36D-02 DE=-2.64D-02 OVMax= 2.07D-02

 Cycle   5  Pass 1  IDiag  1:
 RMSU=  1.33D-04    CP:  9.85D-01  8.50D-01  5.66D-01  5.51D-01
 E= -1219.73238960587     Delta-E=       -0.009125699153 Rises=F Damp=F
 DIIS: error= 8.61D-04 at cycle   5 NSaved=   5.
 NSaved= 5 IEnMin= 5 EnMin= -1219.73238960587     IErMin= 5 ErrMin= 8.61D-04
 ErrMax= 8.61D-04  0.00D+00 EMaxC= 1.00D-01 BMatC= 1.05D-03 BMatP= 1.25D-02
 IDIUse=3 WtCom= 9.91D-01 WtEn= 8.61D-03
 Coeff-Com:  0.324D-02 0.877D-02 0.153D+00 0.321D+00 0.513D+00
 Coeff-En:   0.000D+00 0.000D+00 0.000D+00 0.817D-02 0.992D+00
 Coeff:      0.321D-02 0.869D-02 0.152D+00 0.319D+00 0.517D+00
 Gap=     0.179 Goal=   None    Shift=    0.000
 RMSDP=7.57D-05 MaxDP=6.59D-03 DE=-9.13D-03 OVMax= 6.08D-03

 Cycle   6  Pass 1  IDiag  1:
 RMSU=  3.90D-05    CP:  9.85D-01  8.52D-01  5.79D-01  5.99D-01  5.46D-01
 E= -1219.73319415025     Delta-E=       -0.000804544383 Rises=F Damp=F
 DIIS: error= 2.34D-04 at cycle   6 NSaved=   6.
 NSaved= 6 IEnMin= 6 EnMin= -1219.73319415025     IErMin= 6 ErrMin= 2.34D-04
 ErrMax= 2.34D-04  0.00D+00 EMaxC= 1.00D-01 BMatC= 7.14D-05 BMatP= 1.05D-03
 IDIUse=3 WtCom= 9.98D-01 WtEn= 2.34D-03
 Coeff-Com:  0.101D-02-0.173D-02 0.626D-01 0.142D+00 0.292D+00 0.504D+00
 Coeff-En:   0.000D+00 0.000D+00 0.000D+00 0.000D+00 0.000D+00 0.100D+01
 Coeff:      0.101D-02-0.172D-02 0.625D-01 0.142D+00 0.291D+00 0.506D+00
 Gap=     0.179 Goal=   None    Shift=    0.000
 RMSDP=2.01D-05 MaxDP=1.06D-03 DE=-8.05D-04 OVMax= 1.20D-03

 Cycle   7  Pass 1  IDiag  1:
 RMSU=  1.05D-05    CP:  9.85D-01  8.52D-01  5.82D-01  6.01D-01  5.78D-01
                    CP:  5.84D-01
 E= -1219.73324666793     Delta-E=       -0.000052517678 Rises=F Damp=F
 DIIS: error= 7.20D-05 at cycle   7 NSaved=   7.
 NSaved= 7 IEnMin= 7 EnMin= -1219.73324666793     IErMin= 7 ErrMin= 7.20D-05
 ErrMax= 7.20D-05  0.00D+00 EMaxC= 1.00D-01 BMatC= 4.35D-06 BMatP= 7.14D-05
 IDIUse=1 WtCom= 1.00D+00 WtEn= 0.00D+00
 Coeff-Com:  0.315D-03-0.167D-02 0.192D-01 0.454D-01 0.106D+00 0.261D+00
 Coeff-Com:  0.570D+00
 Coeff:      0.315D-03-0.167D-02 0.192D-01 0.454D-01 0.106D+00 0.261D+00
 Coeff:      0.570D+00
 Gap=     0.179 Goal=   None    Shift=    0.000
 RMSDP=5.29D-06 MaxDP=2.80D-04 DE=-5.25D-05 OVMax= 4.02D-04

 Cycle   8  Pass 1  IDiag  1:
 RMSU=  2.98D-06    CP:  9.85D-01  8.52D-01  5.82D-01  6.05D-01  5.82D-01
                    CP:  6.07D-01  6.36D-01
 E= -1219.73324977299     Delta-E=       -0.000003105064 Rises=F Damp=F
 DIIS: error= 2.16D-05 at cycle   8 NSaved=   8.
 NSaved= 8 IEnMin= 8 EnMin= -1219.73324977299     IErMin= 8 ErrMin= 2.16D-05
 ErrMax= 2.16D-05  0.00D+00 EMaxC= 1.00D-01 BMatC= 3.32D-07 BMatP= 4.35D-06
 IDIUse=1 WtCom= 1.00D+00 WtEn= 0.00D+00
 Coeff-Com:  0.121D-03-0.776D-03 0.613D-02 0.146D-01 0.366D-01 0.102D+00
 Coeff-Com:  0.296D+00 0.545D+00
 Coeff:      0.121D-03-0.776D-03 0.613D-02 0.146D-01 0.366D-01 0.102D+00
 Coeff:      0.296D+00 0.545D+00
 Gap=     0.179 Goal=   None    Shift=    0.000
 RMSDP=1.71D-06 MaxDP=1.22D-04 DE=-3.11D-06 OVMax= 2.09D-04

 Cycle   9  Pass 1  IDiag  1:
 RMSU=  1.29D-06    CP:  9.85D-01  8.52D-01  5.82D-01  6.04D-01  5.83D-01
                    CP:  6.12D-01  6.62D-01  6.52D-01
 E= -1219.73324995783     Delta-E=       -0.000000184839 Rises=F Damp=F
 DIIS: error= 1.28D-05 at cycle   9 NSaved=   9.
 NSaved= 9 IEnMin= 9 EnMin= -1219.73324995783     IErMin= 9 ErrMin= 1.28D-05
 ErrMax= 1.28D-05  0.00D+00 EMaxC= 1.00D-01 BMatC= 9.95D-08 BMatP= 3.32D-07
 IDIUse=1 WtCom= 1.00D+00 WtEn= 0.00D+00
 Coeff-Com:  0.324D-04-0.239D-03 0.780D-03 0.185D-02 0.611D-02 0.219D-01
 Coeff-Com:  0.992D-01 0.374D+00 0.497D+00
 Coeff:      0.324D-04-0.239D-03 0.780D-03 0.185D-02 0.611D-02 0.219D-01
 Coeff:      0.992D-01 0.374D+00 0.497D+00
 Gap=     0.179 Goal=   None    Shift=    0.000
 RMSDP=7.45D-07 MaxDP=5.36D-05 DE=-1.85D-07 OVMax= 8.96D-05

 Cycle  10  Pass 1  IDiag  1:
 RMSU=  3.93D-07    CP:  9.85D-01  8.52D-01  5.82D-01  6.04D-01  5.83D-01
                    CP:  6.15D-01  6.72D-01  7.30D-01  5.64D-01
 E= -1219.73325003003     Delta-E=       -0.000000072199 Rises=F Damp=F
 DIIS: error= 2.47D-06 at cycle  10 NSaved=  10.
 NSaved=10 IEnMin=10 EnMin= -1219.73325003003     IErMin=10 ErrMin= 2.47D-06
 ErrMax= 2.47D-06  0.00D+00 EMaxC= 1.00D-01 BMatC= 5.87D-09 BMatP= 9.95D-08
 IDIUse=1 WtCom= 1.00D+00 WtEn= 0.00D+00
 Coeff-Com:  0.711D-05-0.561D-04-0.123D-03-0.361D-03-0.633D-04 0.208D-02
 Coeff-Com:  0.261D-01 0.153D+00 0.272D+00 0.548D+00
 Coeff:      0.711D-05-0.561D-04-0.123D-03-0.361D-03-0.633D-04 0.208D-02
 Coeff:      0.261D-01 0.153D+00 0.272D+00 0.548D+00
 Gap=     0.179 Goal=   None    Shift=    0.000
 RMSDP=2.03D-07 MaxDP=9.17D-06 DE=-7.22D-08 OVMax= 1.40D-05

 Cycle  11  Pass 1  IDiag  1:
 RMSU=  1.23D-07    CP:  9.85D-01  8.52D-01  5.82D-01  6.04D-01  5.83D-01
                    CP:  6.14D-01  6.75D-01  7.42D-01  6.08D-01  6.58D-01
 E= -1219.73325003466     Delta-E=       -0.000000004633 Rises=F Damp=F
 DIIS: error= 8.98D-07 at cycle  11 NSaved=  11.
 NSaved=11 IEnMin=11 EnMin= -1219.73325003466     IErMin=11 ErrMin= 8.98D-07
 ErrMax= 8.98D-07  0.00D+00 EMaxC= 1.00D-01 BMatC= 4.64D-10 BMatP= 5.87D-09
 IDIUse=1 WtCom= 1.00D+00 WtEn= 0.00D+00
 Coeff-Com: -0.153D-06-0.252D-05-0.144D-03-0.392D-03-0.679D-03-0.136D-02
 Coeff-Com:  0.246D-02 0.360D-01 0.799D-01 0.270D+00 0.614D+00
 Coeff:     -0.153D-06-0.252D-05-0.144D-03-0.392D-03-0.679D-03-0.136D-02
 Coeff:      0.246D-02 0.360D-01 0.799D-01 0.270D+00 0.614D+00
 Gap=     0.179 Goal=   None    Shift=    0.000
 RMSDP=5.97D-08 MaxDP=3.86D-06 DE=-4.63D-09 OVMax= 5.45D-06

 Cycle  12  Pass 1  IDiag  1:
 RMSU=  4.03D-08    CP:  9.85D-01  8.52D-01  5.82D-01  6.04D-01  5.83D-01
                    CP:  6.14D-01  6.75D-01  7.45D-01  6.17D-01  7.19D-01
                    CP:  7.48D-01
 E= -1219.73325003493     Delta-E=       -0.000000000266 Rises=F Damp=F
 DIIS: error= 4.71D-07 at cycle  12 NSaved=  12.
 NSaved=12 IEnMin=12 EnMin= -1219.73325003493     IErMin=12 ErrMin= 4.71D-07
 ErrMax= 4.71D-07  0.00D+00 EMaxC= 1.00D-01 BMatC= 9.56D-11 BMatP= 4.64D-10
 IDIUse=1 WtCom= 1.00D+00 WtEn= 0.00D+00
 Coeff-Com: -0.849D-06 0.285D-05-0.739D-04-0.202D-03-0.389D-03-0.979D-03
 Coeff-Com: -0.686D-03 0.851D-02 0.242D-01 0.116D+00 0.378D+00 0.476D+00
 Coeff:     -0.849D-06 0.285D-05-0.739D-04-0.202D-03-0.389D-03-0.979D-03
 Coeff:     -0.686D-03 0.851D-02 0.242D-01 0.116D+00 0.378D+00 0.476D+00
 Gap=     0.179 Goal=   None    Shift=    0.000
 RMSDP=2.42D-08 MaxDP=1.69D-06 DE=-2.66D-10 OVMax= 2.57D-06

 Cycle  13  Pass 1  IDiag  1:
 RMSU=  1.57D-08    CP:  9.85D-01  8.52D-01  5.82D-01  6.04D-01  5.83D-01
                    CP:  6.14D-01  6.75D-01  7.46D-01  6.18D-01  7.26D-01
                    CP:  7.87D-01  5.75D-01
 E= -1219.73325003501     Delta-E=       -0.000000000078 Rises=F Damp=F
 DIIS: error= 1.61D-07 at cycle  13 NSaved=  13.
 NSaved=13 IEnMin=13 EnMin= -1219.73325003501     IErMin=13 ErrMin= 1.61D-07
 ErrMax= 1.61D-07  0.00D+00 EMaxC= 1.00D-01 BMatC= 1.13D-11 BMatP= 9.56D-11
 IDIUse=1 WtCom= 1.00D+00 WtEn= 0.00D+00
 Coeff-Com: -0.554D-06 0.201D-05-0.244D-04-0.692D-04-0.140D-03-0.401D-03
 Coeff-Com: -0.701D-03 0.351D-03 0.347D-02 0.316D-01 0.140D+00 0.293D+00
 Coeff-Com:  0.533D+00
 Coeff:     -0.554D-06 0.201D-05-0.244D-04-0.692D-04-0.140D-03-0.401D-03
 Coeff:     -0.701D-03 0.351D-03 0.347D-02 0.316D-01 0.140D+00 0.293D+00
 Coeff:      0.533D+00
 Gap=     0.179 Goal=   None    Shift=    0.000
 RMSDP=8.87D-09 MaxDP=5.93D-07 DE=-7.82D-11 OVMax= 9.64D-07

 CoulSu:  requested number of processors reduced to:  11 ShMem   4 Linda.
 Error on total polarization charges =  0.00636
 SCF Done:  E(RB3LYP) =  -1219.73325004     A.U. after   13 cycles
            NFock= 13  Conv=0.89D-08     -V/T= 2.0087
 KE= 1.209231203086D+03 PE=-6.644684260889D+03 EE= 2.344951821863D+03
 Leave Link  502 at Wed Feb  6 11:38:59 2019, MaxMem=    33554432 cpu:       447.9
 (Enter /global/apps/Gaussian/09.d01/l601.exe)
 Copying SCF densities to generalized density rwf, IOpCl= 0 IROHF=0.

 **********************************************************************

            Population analysis using the SCF density.

 **********************************************************************

 Orbital symmetries:
       Occupied  (A) (A) (A) (A) (A) (A) (A) (A) (A) (A) (A) (A)
                 (A) (A) (A) (A) (A) (A) (A) (A) (A) (A) (A) (A)
                 (A) (A) (A) (A) (A) (A) (A) (A) (A) (A) (A) (A)
                 (A) (A) (A) (A) (A) (A) (A) (A) (A) (A) (A) (A)
                 (A) (A) (A) (A) (A) (A) (A) (A) (A) (A) (A) (A)
                 (A) (A) (A) (A) (A) (A) (A) (A) (A) (A) (A) (A)
                 (A) (A) (A) (A) (A) (A) (A) (A) (A) (A) (A) (A)
       Virtual   (A) (A) (A) (A) (A) (A) (A) (A) (A) (A) (A) (A)
                 (A) (A) (A) (A) (A) (A) (A) (A) (A) (A) (A) (A)
                 (A) (A) (A) (A) (A) (A) (A) (A) (A) (A) (A) (A)
                 (A) (A) (A) (A) (A) (A) (A) (A) (A) (A) (A) (A)
                 (A) (A) (A) (A) (A) (A) (A) (A) (A) (A) (A) (A)
                 (A) (A) (A) (A) (A) (A) (A) (A) (A) (A) (A) (A)
                 (A) (A) (A) (A) (A) (A) (A) (A) (A) (A) (A) (A)
                 (A) (A) (A) (A) (A) (A) (A) (A) (A) (A) (A) (A)
                 (A) (A) (A) (A) (A) (A) (A) (A) (A) (A) (A) (A)
                 (A) (A) (A) (A) (A) (A) (A) (A) (A) (A) (A) (A)
                 (A) (A) (A) (A) (A) (A) (A) (A) (A) (A) (A) (A)
                 (A) (A) (A) (A) (A) (A) (A) (A) (A) (A) (A) (A)
                 (A) (A) (A) (A) (A) (A) (A) (A) (A) (A) (A) (A)
                 (A) (A) (A) (A) (A) (A) (A) (A) (A) (A) (A) (A)
                 (A) (A) (A) (A) (A) (A) (A) (A) (A) (A) (A) (A)
                 (A) (A) (A) (A) (A) (A) (A) (A) (A) (A) (A) (A)
                 (A) (A) (A) (A) (A) (A) (A) (A) (A) (A) (A) (A)
                 (A) (A) (A) (A) (A) (A) (A) (A) (A) (A) (A) (A)
                 (A) (A) (A) (A) (A) (A) (A) (A) (A) (A) (A) (A)
                 (A) (A) (A) (A) (A) (A) (A) (A) (A) (A) (A) (A)
                 (A) (A) (A) (A) (A) (A) (A) (A) (A) (A) (A) (A)
                 (A) (A) (A) (A) (A) (A) (A) (A) (A) (A) (A) (A)
                 (A) (A) (A) (A) (A) (A) (A) (A) (A) (A) (A) (A)
                 (A) (A) (A) (A) (A) (A) (A) (A) (A) (A) (A) (A)
                 (A) (A) (A) (A) (A) (A) (A) (A) (A) (A) (A) (A)
                 (A) (A) (A) (A) (A) (A) (A) (A) (A) (A) (A) (A)
                 (A) (A) (A) (A) (A) (A) (A) (A) (A)
 The electronic state is 1-A.
 Alpha  occ. eigenvalues --  -19.15649 -19.14673 -19.11802 -19.11521 -19.10816
 Alpha  occ. eigenvalues --  -19.10370 -19.10266 -19.10097 -19.09424 -19.09238
 Alpha  occ. eigenvalues --  -19.08956 -10.27785 -10.27112 -10.27011 -10.23625
 Alpha  occ. eigenvalues --  -10.20213 -10.18592 -10.18295 -10.18192 -10.18046
 Alpha  occ. eigenvalues --  -10.17901  -1.04751  -1.02232  -1.02138  -1.01918
 Alpha  occ. eigenvalues --   -0.97693  -0.97410  -0.96519  -0.96060  -0.95419
 Alpha  occ. eigenvalues --   -0.94395  -0.93398  -0.83920  -0.76714  -0.74264
 Alpha  occ. eigenvalues --   -0.69819  -0.63249  -0.59785  -0.58809  -0.52482
 Alpha  occ. eigenvalues --   -0.50701  -0.49775  -0.49134  -0.48826  -0.48231
 Alpha  occ. eigenvalues --   -0.47963  -0.47325  -0.46325  -0.45769  -0.45289
 Alpha  occ. eigenvalues --   -0.44222  -0.44095  -0.42983  -0.41538  -0.41264
 Alpha  occ. eigenvalues --   -0.40592  -0.39839  -0.39415  -0.38503  -0.37802
 Alpha  occ. eigenvalues --   -0.37480  -0.37259  -0.36111  -0.35982  -0.35486
 Alpha  occ. eigenvalues --   -0.35061  -0.34619  -0.33799  -0.31050  -0.29253
 Alpha  occ. eigenvalues --   -0.28724  -0.27926  -0.27619  -0.27072  -0.26670
 Alpha  occ. eigenvalues --   -0.26145  -0.25929  -0.25697  -0.25419  -0.24760
 Alpha  occ. eigenvalues --   -0.24448  -0.23075  -0.22595  -0.21157
 Alpha virt. eigenvalues --   -0.03278   0.01333   0.02049   0.05723   0.07487
 Alpha virt. eigenvalues --    0.09450   0.10963   0.11644   0.12561   0.13605
 Alpha virt. eigenvalues --    0.14763   0.15858   0.17293   0.18070   0.18615
 Alpha virt. eigenvalues --    0.19016   0.19359   0.20944   0.21174   0.21916
 Alpha virt. eigenvalues --    0.22536   0.23040   0.23311   0.23909   0.25200
 Alpha virt. eigenvalues --    0.25545   0.26243   0.27312   0.28061   0.31460
 Alpha virt. eigenvalues --    0.34035   0.34760   0.36913   0.37776   0.40230
 Alpha virt. eigenvalues --    0.46125   0.46666   0.47930   0.49523   0.51010
 Alpha virt. eigenvalues --    0.53061   0.53989   0.56227   0.56788   0.58026
 Alpha virt. eigenvalues --    0.60650   0.61049   0.61736   0.62173   0.63108
 Alpha virt. eigenvalues --    0.64000   0.64790   0.65154   0.66636   0.67990
 Alpha virt. eigenvalues --    0.68823   0.69604   0.71361   0.72445   0.72735
 Alpha virt. eigenvalues --    0.74156   0.75861   0.76363   0.76786   0.77392
 Alpha virt. eigenvalues --    0.77825   0.78622   0.79141   0.79608   0.80064
 Alpha virt. eigenvalues --    0.80912   0.81328   0.82094   0.82109   0.82918
 Alpha virt. eigenvalues --    0.83001   0.84038   0.84735   0.85649   0.85920
 Alpha virt. eigenvalues --    0.86423   0.87572   0.88107   0.89180   0.89974
 Alpha virt. eigenvalues --    0.91349   0.91545   0.92019   0.93185   0.93752
 Alpha virt. eigenvalues --    0.94341   0.95208   0.95807   0.96675   0.96999
 Alpha virt. eigenvalues --    0.97973   0.98711   1.00220   1.01400   1.02832
 Alpha virt. eigenvalues --    1.02990   1.05741   1.06471   1.07105   1.07843
 Alpha virt. eigenvalues --    1.08765   1.08941   1.09859   1.10565   1.11759
 Alpha virt. eigenvalues --    1.13138   1.13687   1.14268   1.16817   1.17369
 Alpha virt. eigenvalues --    1.18463   1.19418   1.21590   1.22449   1.23168
 Alpha virt. eigenvalues --    1.24691   1.25682   1.27486   1.28631   1.30869
 Alpha virt. eigenvalues --    1.33395   1.33902   1.34689   1.36061   1.36806
 Alpha virt. eigenvalues --    1.37238   1.38564   1.41605   1.43068   1.43785
 Alpha virt. eigenvalues --    1.45064   1.45768   1.47358   1.49904   1.51795
 Alpha virt. eigenvalues --    1.52304   1.53602   1.54410   1.54603   1.55789
 Alpha virt. eigenvalues --    1.56418   1.56668   1.56932   1.58232   1.58937
 Alpha virt. eigenvalues --    1.59123   1.60288   1.60598   1.61912   1.63042
 Alpha virt. eigenvalues --    1.64297   1.64576   1.65198   1.65507   1.67208
 Alpha virt. eigenvalues --    1.67778   1.68861   1.69282   1.69925   1.70648
 Alpha virt. eigenvalues --    1.70898   1.72622   1.74941   1.76514   1.77700
 Alpha virt. eigenvalues --    1.79494   1.80412   1.81897   1.82904   1.83988
 Alpha virt. eigenvalues --    1.85556   1.86216   1.87015   1.88158   1.88821
 Alpha virt. eigenvalues --    1.90761   1.92266   1.93199   1.93860   1.94698
 Alpha virt. eigenvalues --    1.95672   1.96596   1.98054   1.98947   2.00124
 Alpha virt. eigenvalues --    2.02472   2.03715   2.04705   2.05479   2.07467
 Alpha virt. eigenvalues --    2.08831   2.09888   2.11833   2.13195   2.14423
 Alpha virt. eigenvalues --    2.17535   2.20358   2.22961   2.25184   2.27077
 Alpha virt. eigenvalues --    2.28139   2.28853   2.30223   2.31328   2.31710
 Alpha virt. eigenvalues --    2.32870   2.33117   2.34170   2.35836   2.36489
 Alpha virt. eigenvalues --    2.36761   2.37789   2.39907   2.41443   2.42449
 Alpha virt. eigenvalues --    2.43466   2.43893   2.44530   2.44821   2.46293
 Alpha virt. eigenvalues --    2.47681   2.48025   2.48993   2.49630   2.51385
 Alpha virt. eigenvalues --    2.51769   2.51945   2.53300   2.54393   2.56378
 Alpha virt. eigenvalues --    2.58061   2.60631   2.62303   2.62955   2.63168
 Alpha virt. eigenvalues --    2.63954   2.64822   2.65423   2.66233   2.66761
 Alpha virt. eigenvalues --    2.67554   2.68222   2.70082   2.70143   2.71190
 Alpha virt. eigenvalues --    2.72469   2.72744   2.73946   2.74286   2.75001
 Alpha virt. eigenvalues --    2.75752   2.76331   2.76793   2.78317   2.79581
 Alpha virt. eigenvalues --    2.82078   2.84023   2.86156   2.89648   2.90870
 Alpha virt. eigenvalues --    2.93191   2.94205   2.95890   2.98139   3.02420
 Alpha virt. eigenvalues --    3.03736   3.04092   3.04609   3.05938   3.06719
 Alpha virt. eigenvalues --    3.07273   3.07944   3.09555   3.16610   3.18682
 Alpha virt. eigenvalues --    3.22488   3.23149   3.28149   3.31887   3.36217
 Alpha virt. eigenvalues --    3.37908   3.39555   3.41795   3.42372   3.43751
 Alpha virt. eigenvalues --    3.45358   3.47518   3.49880   3.57814   3.61283
 Alpha virt. eigenvalues --    3.62623   3.63603   3.64897   3.66051   3.67899
 Alpha virt. eigenvalues --    3.76715   3.77263   3.77487   3.87982   3.89478
 Alpha virt. eigenvalues --    4.03284   4.08036   4.11177   4.14765   4.18383
 Alpha virt. eigenvalues --    4.26369   4.31603   4.34986   4.42699   4.48511
 Alpha virt. eigenvalues --    4.54453   4.60216   4.64040   4.66324   4.81828
 Alpha virt. eigenvalues --    4.92818
          Condensed to atoms (all electrons):
               1          2          3          4          5          6
     1  C    5.313891   0.331690   0.357547  -0.019243  -0.048451   0.309321
     2  C    0.331690   4.918223  -0.053417   0.617559   0.366763  -0.034316
     3  C    0.357547  -0.053417   5.004503  -0.015447   0.005625  -0.031353
     4  C   -0.019243   0.617559  -0.015447   4.932177  -0.039213   0.000859
     5  H   -0.048451   0.366763   0.005625  -0.039213   0.615692  -0.005279
     6  C    0.309321  -0.034316  -0.031353   0.000859  -0.005279   4.348354
     7  C   -0.038504  -0.013912   0.577873  -0.043658   0.000110   0.000819
     8  H   -0.057410   0.005751   0.327333  -0.000191  -0.000139  -0.004712
     9  C   -0.036698  -0.029917  -0.023794   0.375831   0.005575   0.000558
    10  H    0.004634  -0.030709   0.000029   0.364654  -0.008499  -0.000051
    11  O   -0.106366   0.007970   0.000606   0.000229   0.013020   0.478259
    12  O   -0.109626   0.003774   0.005879  -0.000057   0.000185   0.388391
    13  H    0.005140   0.000302  -0.030919   0.004266   0.000011  -0.000095
    14  O    0.000348   0.000816   0.003595  -0.037890  -0.000059   0.000004
    15  H    0.000951  -0.001213  -0.000161  -0.041901  -0.000156  -0.000025
    16  H   -0.000014  -0.000186  -0.000040   0.005496   0.000005  -0.000001
    17  C    0.303213  -0.046272  -0.059634  -0.002531  -0.003128  -0.033051
    18  C   -0.025785  -0.007339   0.001270   0.000803  -0.000183   0.002220
    19  H   -0.029845  -0.007865   0.006322  -0.000103   0.004513  -0.002215
    20  H   -0.030874   0.005895  -0.002605  -0.000116  -0.000039  -0.009575
    21  C    0.000956   0.005396  -0.001573   0.003173   0.000063  -0.000076
    22  O   -0.005764  -0.000015   0.003712   0.000029  -0.000001  -0.000136
    23  O    0.000489  -0.000758  -0.000267   0.000460  -0.000003   0.000001
    24  O   -0.000614   0.000369   0.000026  -0.000600   0.000012  -0.000004
    25  O   -0.001237  -0.000003  -0.009286  -0.000001   0.000000  -0.000646
    26  H   -0.000914   0.000011   0.002794  -0.000001   0.000000  -0.000212
    27  H   -0.001332  -0.000030   0.001549   0.000000  -0.000003  -0.001969
    28  O    0.000000   0.000000   0.000000   0.000000   0.000000   0.000000
    29  H   -0.000001   0.000001   0.000000   0.000000   0.000000   0.000000
    30  H    0.000000   0.000000   0.000000   0.000000   0.000000   0.000000
    31  O    0.000000  -0.000001   0.000000  -0.000006   0.000000   0.000000
    32  H   -0.000001   0.000002   0.000000   0.000013   0.000001   0.000000
    33  H    0.000002  -0.000009   0.000000   0.000104   0.000000   0.000000
    34  O    0.000017  -0.000110  -0.002256  -0.000015   0.000000   0.000007
    35  H   -0.000033   0.000392   0.000900   0.000298  -0.000003  -0.000006
    36  H   -0.000233   0.000239   0.006238   0.000213   0.000000   0.000064
    37  O   -0.000120   0.000004   0.000001   0.000000   0.000001   0.000835
    38  H    0.001289  -0.000048  -0.000026  -0.000001  -0.000027   0.003153
    39  H    0.000902  -0.000020  -0.000024   0.000000  -0.000002   0.003843
               7          8          9         10         11         12
     1  C   -0.038504  -0.057410  -0.036698   0.004634  -0.106366  -0.109626
     2  C   -0.013912   0.005751  -0.029917  -0.030709   0.007970   0.003774
     3  C    0.577873   0.327333  -0.023794   0.000029   0.000606   0.005879
     4  C   -0.043658  -0.000191   0.375831   0.364654   0.000229  -0.000057
     5  H    0.000110  -0.000139   0.005575  -0.008499   0.013020   0.000185
     6  C    0.000819  -0.004712   0.000558  -0.000051   0.478259   0.388391
     7  C    5.029328  -0.027082   0.347844   0.005147  -0.000085   0.000815
     8  H   -0.027082   0.640780   0.005066   0.000012   0.000026   0.005446
     9  C    0.347844   0.005066   4.874499  -0.048604   0.000003  -0.000010
    10  H    0.005147   0.000012  -0.048604   0.618431  -0.000006   0.000000
    11  O   -0.000085   0.000026   0.000003  -0.000006   8.261625  -0.081577
    12  O    0.000815   0.005446  -0.000010   0.000000  -0.081577   8.332783
    13  H    0.367795  -0.009229  -0.049104  -0.000162   0.000001   0.000001
    14  O   -0.034558  -0.000064   0.154607   0.002409   0.000000   0.000000
    15  H   -0.052263  -0.000140   0.367687  -0.001400   0.000000   0.000000
    16  H   -0.001145   0.000000  -0.020775  -0.000129   0.000000   0.000000
    17  C   -0.004913   0.003777   0.000300  -0.000081  -0.000133  -0.005546
    18  C    0.004241  -0.001786  -0.000962  -0.000022  -0.000041  -0.000140
    19  H    0.000045  -0.000158  -0.000013  -0.000043   0.000664   0.000148
    20  H   -0.000172  -0.001335  -0.000048   0.000005  -0.000160   0.011725
    21  C   -0.000869   0.000039  -0.000220   0.000028   0.000001  -0.000005
    22  O   -0.000994  -0.000333  -0.000112   0.000000   0.000000   0.000009
    23  O    0.001073   0.000000  -0.008876  -0.000016   0.000000   0.000000
    24  O   -0.000001   0.000001  -0.000048  -0.000004   0.000000   0.000000
    25  O    0.000303   0.028439   0.000001   0.000000  -0.000005  -0.016694
    26  H    0.000147  -0.000077  -0.000001   0.000000   0.000001   0.000511
    27  H    0.000167  -0.001860  -0.000002   0.000000   0.000364   0.060771
    28  O    0.000000   0.000000   0.000000   0.000000   0.000000   0.000000
    29  H    0.000000   0.000000   0.000002   0.000000   0.000000   0.000000
    30  H    0.000000   0.000000   0.000000   0.000000   0.000000   0.000000
    31  O    0.000000   0.000000  -0.000001   0.000002   0.000000   0.000000
    32  H    0.000000   0.000000  -0.000004   0.000003   0.000000   0.000000
    33  H   -0.000001   0.000000  -0.000038   0.000031   0.000000   0.000000
    34  O    0.001231  -0.000027  -0.000926   0.000010  -0.000001   0.000000
    35  H    0.000143  -0.000013  -0.005694  -0.000058   0.000000   0.000000
    36  H    0.012682   0.000102  -0.000153   0.000001   0.000026  -0.000001
    37  O    0.000000   0.000001   0.000000   0.000000  -0.016555  -0.013131
    38  H    0.000000  -0.000002   0.000000   0.000000   0.052369  -0.000798
    39  H   -0.000001  -0.000018   0.000000   0.000000  -0.000019   0.043795
              13         14         15         16         17         18
     1  C    0.005140   0.000348   0.000951  -0.000014   0.303213  -0.025785
     2  C    0.000302   0.000816  -0.001213  -0.000186  -0.046272  -0.007339
     3  C   -0.030919   0.003595  -0.000161  -0.000040  -0.059634   0.001270
     4  C    0.004266  -0.037890  -0.041901   0.005496  -0.002531   0.000803
     5  H    0.000011  -0.000059  -0.000156   0.000005  -0.003128  -0.000183
     6  C   -0.000095   0.000004  -0.000025  -0.000001  -0.033051   0.002220
     7  C    0.367795  -0.034558  -0.052263  -0.001145  -0.004913   0.004241
     8  H   -0.009229  -0.000064  -0.000140   0.000000   0.003777  -0.001786
     9  C   -0.049104   0.154607   0.367687  -0.020775   0.000300  -0.000962
    10  H   -0.000162   0.002409  -0.001400  -0.000129  -0.000081  -0.000022
    11  O    0.000001   0.000000   0.000000   0.000000  -0.000133  -0.000041
    12  O    0.000001   0.000000   0.000000   0.000000  -0.005546  -0.000140
    13  H    0.611239  -0.001569  -0.001005   0.004010  -0.000134  -0.000052
    14  O   -0.001569   8.199468  -0.033178   0.278808  -0.000012   0.000002
    15  H   -0.001005  -0.033178   0.600848  -0.004317   0.000400   0.000766
    16  H    0.004010   0.278808  -0.004317   0.408562   0.000001   0.000000
    17  C   -0.000134  -0.000012   0.000400   0.000001   5.271096   0.284600
    18  C   -0.000052   0.000002   0.000766   0.000000   0.284600   4.753947
    19  H    0.000007   0.000000  -0.000036   0.000000   0.351960  -0.028801
    20  H    0.000010   0.000000  -0.000006   0.000000   0.337027  -0.027471
    21  C    0.000012   0.000002  -0.001241  -0.000001  -0.082854   0.306517
    22  O    0.000002   0.000000  -0.000033   0.000000  -0.070881   0.487553
    23  O   -0.000020   0.000059   0.024071   0.000006   0.002439  -0.065441
    24  O    0.000000   0.000000   0.000049   0.000000   0.007687  -0.082436
    25  O   -0.000015   0.000000   0.000000   0.000000  -0.000568  -0.001024
    26  H    0.000016   0.000000   0.000000   0.000000  -0.004327  -0.003163
    27  H    0.000007   0.000000   0.000000   0.000000  -0.001090  -0.000265
    28  O    0.000000   0.000000   0.000001   0.000000   0.000000  -0.000021
    29  H    0.000000   0.000000   0.000000   0.000000  -0.000002   0.000306
    30  H    0.000000   0.000000  -0.000003   0.000000  -0.000001   0.000003
    31  O    0.000000   0.000000  -0.000011   0.000000   0.000005   0.000008
    32  H    0.000000   0.000000   0.000001   0.000000  -0.000078   0.001270
    33  H    0.000000   0.000000   0.000302   0.000000  -0.000029   0.000577
    34  O    0.001130  -0.016788  -0.000067   0.002334   0.000000   0.000000
    35  H   -0.000420   0.058285   0.000853  -0.004880   0.000002   0.000000
    36  H   -0.000414   0.000612   0.000108  -0.000042   0.000019   0.000000
    37  O    0.000000   0.000000   0.000000   0.000000  -0.000001   0.000000
    38  H    0.000000   0.000000   0.000000   0.000000  -0.000027   0.000000
    39  H    0.000000   0.000000   0.000000   0.000000   0.000001   0.000001
              19         20         21         22         23         24
     1  C   -0.029845  -0.030874   0.000956  -0.005764   0.000489  -0.000614
     2  C   -0.007865   0.005895   0.005396  -0.000015  -0.000758   0.000369
     3  C    0.006322  -0.002605  -0.001573   0.003712  -0.000267   0.000026
     4  C   -0.000103  -0.000116   0.003173   0.000029   0.000460  -0.000600
     5  H    0.004513  -0.000039   0.000063  -0.000001  -0.000003   0.000012
     6  C   -0.002215  -0.009575  -0.000076  -0.000136   0.000001  -0.000004
     7  C    0.000045  -0.000172  -0.000869  -0.000994   0.001073  -0.000001
     8  H   -0.000158  -0.001335   0.000039  -0.000333   0.000000   0.000001
     9  C   -0.000013  -0.000048  -0.000220  -0.000112  -0.008876  -0.000048
    10  H   -0.000043   0.000005   0.000028   0.000000  -0.000016  -0.000004
    11  O    0.000664  -0.000160   0.000001   0.000000   0.000000   0.000000
    12  O    0.000148   0.011725  -0.000005   0.000009   0.000000   0.000000
    13  H    0.000007   0.000010   0.000012   0.000002  -0.000020   0.000000
    14  O    0.000000   0.000000   0.000002   0.000000   0.000059   0.000000
    15  H   -0.000036  -0.000006  -0.001241  -0.000033   0.024071   0.000049
    16  H    0.000000   0.000000  -0.000001   0.000000   0.000006   0.000000
    17  C    0.351960   0.337027  -0.082854  -0.070881   0.002439   0.007687
    18  C   -0.028801  -0.027471   0.306517   0.487553  -0.065441  -0.082436
    19  H    0.593713  -0.026654  -0.002157   0.003364   0.000215   0.010698
    20  H   -0.026654   0.615465   0.003434  -0.002786  -0.000074  -0.000116
    21  C   -0.002157   0.003434   4.517997  -0.052370   0.371326   0.385414
    22  O    0.003364  -0.002786  -0.052370   8.106081  -0.000068   0.000403
    23  O    0.000215  -0.000074   0.371326  -0.000068   8.313088  -0.076452
    24  O    0.010698  -0.000116   0.385414   0.000403  -0.076452   8.323123
    25  O    0.000064   0.007209  -0.000018  -0.006954   0.000000   0.000000
    26  H    0.000126   0.006252   0.000412   0.041914  -0.000011  -0.000007
    27  H    0.000047   0.004688  -0.000006   0.000052   0.000000   0.000000
    28  O    0.000000   0.000000   0.001670   0.000001  -0.011250  -0.000196
    29  H    0.000000   0.000000   0.001580  -0.000059   0.039161  -0.000259
    30  H    0.000000   0.000000   0.000568   0.000000   0.000875   0.000506
    31  O    0.000003   0.000000   0.002753   0.000000  -0.008695  -0.024824
    32  H   -0.000027   0.000001   0.001990  -0.000016  -0.000892   0.065734
    33  H   -0.000002   0.000000   0.003294  -0.000003   0.028566   0.000360
    34  O    0.000000   0.000000   0.000000   0.000000   0.000000   0.000000
    35  H    0.000000   0.000000   0.000000   0.000000   0.000000   0.000000
    36  H    0.000000   0.000000   0.000000   0.000000   0.000000   0.000000
    37  O    0.000000   0.000006   0.000000   0.000000   0.000000   0.000000
    38  H   -0.000004  -0.000015   0.000000   0.000000   0.000000   0.000000
    39  H   -0.000003  -0.000049   0.000000   0.000000   0.000000   0.000000
              25         26         27         28         29         30
     1  C   -0.001237  -0.000914  -0.001332   0.000000  -0.000001   0.000000
     2  C   -0.000003   0.000011  -0.000030   0.000000   0.000001   0.000000
     3  C   -0.009286   0.002794   0.001549   0.000000   0.000000   0.000000
     4  C   -0.000001  -0.000001   0.000000   0.000000   0.000000   0.000000
     5  H    0.000000   0.000000  -0.000003   0.000000   0.000000   0.000000
     6  C   -0.000646  -0.000212  -0.001969   0.000000   0.000000   0.000000
     7  C    0.000303   0.000147   0.000167   0.000000   0.000000   0.000000
     8  H    0.028439  -0.000077  -0.001860   0.000000   0.000000   0.000000
     9  C    0.000001  -0.000001  -0.000002   0.000000   0.000002   0.000000
    10  H    0.000000   0.000000   0.000000   0.000000   0.000000   0.000000
    11  O   -0.000005   0.000001   0.000364   0.000000   0.000000   0.000000
    12  O   -0.016694   0.000511   0.060771   0.000000   0.000000   0.000000
    13  H   -0.000015   0.000016   0.000007   0.000000   0.000000   0.000000
    14  O    0.000000   0.000000   0.000000   0.000000   0.000000   0.000000
    15  H    0.000000   0.000000   0.000000   0.000001   0.000000  -0.000003
    16  H    0.000000   0.000000   0.000000   0.000000   0.000000   0.000000
    17  C   -0.000568  -0.004327  -0.001090   0.000000  -0.000002  -0.000001
    18  C   -0.001024  -0.003163  -0.000265  -0.000021   0.000306   0.000003
    19  H    0.000064   0.000126   0.000047   0.000000   0.000000   0.000000
    20  H    0.007209   0.006252   0.004688   0.000000   0.000000   0.000000
    21  C   -0.000018   0.000412  -0.000006   0.001670   0.001580   0.000568
    22  O   -0.006954   0.041914   0.000052   0.000001  -0.000059   0.000000
    23  O    0.000000  -0.000011   0.000000  -0.011250   0.039161   0.000875
    24  O    0.000000  -0.000007   0.000000  -0.000196  -0.000259   0.000506
    25  O    8.172939   0.282095   0.273058   0.000000   0.000000   0.000000
    26  H    0.282095   0.398913  -0.037747   0.000000   0.000000   0.000000
    27  H    0.273058  -0.037747   0.364766   0.000000   0.000000   0.000000
    28  O    0.000000   0.000000   0.000000   8.187579   0.285909   0.270045
    29  H    0.000000   0.000000   0.000000   0.285909   0.398829  -0.039671
    30  H    0.000000   0.000000   0.000000   0.270045  -0.039671   0.420428
    31  O    0.000000   0.000000   0.000000  -0.017037   0.001286   0.060924
    32  H    0.000000   0.000000   0.000000   0.001135   0.000762  -0.001355
    33  H    0.000000   0.000000   0.000000   0.005234   0.001218  -0.006430
    34  O    0.000000   0.000000   0.000000   0.000000   0.000000   0.000000
    35  H    0.000000   0.000000   0.000000   0.000000   0.000000   0.000000
    36  H    0.000000   0.000000   0.000000   0.000000   0.000000   0.000000
    37  O    0.000000   0.000000   0.000012   0.000000   0.000000   0.000000
    38  H    0.000000   0.000000   0.000000   0.000000   0.000000   0.000000
    39  H    0.000013  -0.000001  -0.000085   0.000000   0.000000   0.000000
              31         32         33         34         35         36
     1  C    0.000000  -0.000001   0.000002   0.000017  -0.000033  -0.000233
     2  C   -0.000001   0.000002  -0.000009  -0.000110   0.000392   0.000239
     3  C    0.000000   0.000000   0.000000  -0.002256   0.000900   0.006238
     4  C   -0.000006   0.000013   0.000104  -0.000015   0.000298   0.000213
     5  H    0.000000   0.000001   0.000000   0.000000  -0.000003   0.000000
     6  C    0.000000   0.000000   0.000000   0.000007  -0.000006   0.000064
     7  C    0.000000   0.000000  -0.000001   0.001231   0.000143   0.012682
     8  H    0.000000   0.000000   0.000000  -0.000027  -0.000013   0.000102
     9  C   -0.000001  -0.000004  -0.000038  -0.000926  -0.005694  -0.000153
    10  H    0.000002   0.000003   0.000031   0.000010  -0.000058   0.000001
    11  O    0.000000   0.000000   0.000000  -0.000001   0.000000   0.000026
    12  O    0.000000   0.000000   0.000000   0.000000   0.000000  -0.000001
    13  H    0.000000   0.000000   0.000000   0.001130  -0.000420  -0.000414
    14  O    0.000000   0.000000   0.000000  -0.016788   0.058285   0.000612
    15  H   -0.000011   0.000001   0.000302  -0.000067   0.000853   0.000108
    16  H    0.000000   0.000000   0.000000   0.002334  -0.004880  -0.000042
    17  C    0.000005  -0.000078  -0.000029   0.000000   0.000002   0.000019
    18  C    0.000008   0.001270   0.000577   0.000000   0.000000   0.000000
    19  H    0.000003  -0.000027  -0.000002   0.000000   0.000000   0.000000
    20  H    0.000000   0.000001   0.000000   0.000000   0.000000   0.000000
    21  C    0.002753   0.001990   0.003294   0.000000   0.000000   0.000000
    22  O    0.000000  -0.000016  -0.000003   0.000000   0.000000   0.000000
    23  O   -0.008695  -0.000892   0.028566   0.000000   0.000000   0.000000
    24  O   -0.024824   0.065734   0.000360   0.000000   0.000000   0.000000
    25  O    0.000000   0.000000   0.000000   0.000000   0.000000   0.000000
    26  H    0.000000   0.000000   0.000000   0.000000   0.000000   0.000000
    27  H    0.000000   0.000000   0.000000   0.000000   0.000000   0.000000
    28  O   -0.017037   0.001135   0.005234   0.000000   0.000000   0.000000
    29  H    0.001286   0.000762   0.001218   0.000000   0.000000   0.000000
    30  H    0.060924  -0.001355  -0.006430   0.000000   0.000000   0.000000
    31  O    8.130498   0.262422   0.275804   0.000000   0.000000   0.000000
    32  H    0.262422   0.383622  -0.036030   0.000000   0.000000   0.000000
    33  H    0.275804  -0.036030   0.423461   0.000000   0.000000   0.000000
    34  O    0.000000   0.000000   0.000000   8.156838   0.271046   0.286917
    35  H    0.000000   0.000000   0.000000   0.271046   0.394040  -0.033174
    36  H    0.000000   0.000000   0.000000   0.286917  -0.033174   0.422343
    37  O    0.000000   0.000000   0.000000   0.000000   0.000000   0.000000
    38  H    0.000000   0.000000   0.000000   0.000000   0.000000   0.000000
    39  H    0.000000   0.000000   0.000000   0.000000   0.000000   0.000000
              37         38         39
     1  C   -0.000120   0.001289   0.000902
     2  C    0.000004  -0.000048  -0.000020
     3  C    0.000001  -0.000026  -0.000024
     4  C    0.000000  -0.000001   0.000000
     5  H    0.000001  -0.000027  -0.000002
     6  C    0.000835   0.003153   0.003843
     7  C    0.000000   0.000000  -0.000001
     8  H    0.000001  -0.000002  -0.000018
     9  C    0.000000   0.000000   0.000000
    10  H    0.000000   0.000000   0.000000
    11  O   -0.016555   0.052369  -0.000019
    12  O   -0.013131  -0.000798   0.043795
    13  H    0.000000   0.000000   0.000000
    14  O    0.000000   0.000000   0.000000
    15  H    0.000000   0.000000   0.000000
    16  H    0.000000   0.000000   0.000000
    17  C   -0.000001  -0.000027   0.000001
    18  C    0.000000   0.000000   0.000001
    19  H    0.000000  -0.000004  -0.000003
    20  H    0.000006  -0.000015  -0.000049
    21  C    0.000000   0.000000   0.000000
    22  O    0.000000   0.000000   0.000000
    23  O    0.000000   0.000000   0.000000
    24  O    0.000000   0.000000   0.000000
    25  O    0.000000   0.000000   0.000013
    26  H    0.000000   0.000000  -0.000001
    27  H    0.000012   0.000000  -0.000085
    28  O    0.000000   0.000000   0.000000
    29  H    0.000000   0.000000   0.000000
    30  H    0.000000   0.000000   0.000000
    31  O    0.000000   0.000000   0.000000
    32  H    0.000000   0.000000   0.000000
    33  H    0.000000   0.000000   0.000000
    34  O    0.000000   0.000000   0.000000
    35  H    0.000000   0.000000   0.000000
    36  H    0.000000   0.000000   0.000000
    37  O    8.197616   0.275671   0.280191
    38  H    0.275671   0.410315  -0.041451
    39  H    0.280191  -0.041451   0.413777
 Mulliken charges:
               1
     1  C   -0.117328
     2  C   -0.039017
     3  C   -0.075000
     4  C   -0.105189
     5  H    0.093607
     6  C    0.587033
     7  C   -0.131605
     8  H    0.087803
     9  C    0.094030
    10  H    0.094388
    11  O   -0.610215
    12  O   -0.626647
    13  H    0.099192
    14  O   -0.574897
    15  H    0.141120
    16  H    0.332307
    17  C   -0.247231
    18  C    0.400849
    19  H    0.126037
    20  H    0.110375
    21  C    0.534765
    22  O   -0.502593
    23  O   -0.609005
    24  O   -0.608822
    25  O   -0.727670
    26  H    0.313270
    27  H    0.338906
    28  O   -0.723070
    29  H    0.310939
    30  H    0.294109
    31  O   -0.683129
    32  H    0.321445
    33  H    0.303589
    34  O   -0.699340
    35  H    0.318322
    36  H    0.304454
    37  O   -0.724535
    38  H    0.299603
    39  H    0.299150
 Sum of Mulliken charges =  -2.00000
 Mulliken charges with hydrogens summed into heavy atoms:
               1
     1  C   -0.117328
     2  C    0.054590
     3  C    0.012803
     4  C   -0.010801
     6  C    0.587033
     7  C   -0.032413
     9  C    0.235150
    11  O   -0.610215
    12  O   -0.626647
    14  O   -0.242590
    17  C   -0.010820
    18  C    0.400849
    21  C    0.534765
    22  O   -0.502593
    23  O   -0.609005
    24  O   -0.608822
    25  O   -0.075493
    28  O   -0.118023
    31  O   -0.058095
    34  O   -0.076564
    37  O   -0.125782
 Electronic spatial extent (au):  <R**2>=           7940.3476
 Charge=             -2.0000 electrons
 Dipole moment (field-independent basis, Debye):
    X=              3.0275    Y=              6.1534    Z=              0.8007  Tot=              6.9045
 Quadrupole moment (field-independent basis, Debye-Ang):
   XX=           -298.9660   YY=           -165.8727   ZZ=           -158.0525
   XY=              3.8821   XZ=             -5.1909   YZ=              8.3701
 Traceless Quadrupole moment (field-independent basis, Debye-Ang):
   XX=            -91.3356   YY=             41.7577   ZZ=             49.5779
   XY=              3.8821   XZ=             -5.1909   YZ=              8.3701
 Octapole moment (field-independent basis, Debye-Ang**2):
  XXX=            -33.4931  YYY=            -63.4166  ZZZ=            -14.0527  XYY=            106.6670
  XXY=            136.0379  XXZ=             84.6903  XZZ=             22.6943  YZZ=             52.3762
  YYZ=            -19.7290  XYZ=             22.7520
 Hexadecapole moment (field-independent basis, Debye-Ang**3):
 XXXX=         -10435.1040 YYYY=          -2994.0881 ZZZZ=          -1403.7809 XXXY=           -247.0354
 XXXZ=           -566.4070 YYYX=            281.1465 YYYZ=             25.7778 ZZZX=            113.2191
 ZZZY=            102.7925 XXYY=          -1754.6950 XXZZ=          -1593.5705 YYZZ=           -712.8452
 XXYZ=            -97.0670 YYXZ=             96.0971 ZZXY=            -59.1757
 N-N= 1.870767985905D+03 E-N=-6.644684255526D+03  KE= 1.209231203086D+03
 No NMR shielding tensors so no spin-rotation constants.
 Leave Link  601 at Wed Feb  6 11:38:59 2019, MaxMem=    33554432 cpu:         7.1
 (Enter /global/apps/Gaussian/09.d01/l9999.exe)
 1\1\GINC-C46-2\SP\RB3LYP\6-31G(d,p)\C10H18O11(2-)\GVI022\06-Feb-2019\0
 \\#p rb3lyp/6-31g(d,p) scrf=(iefpcm,solvent=water) geom=connectivity e
 mpiricaldispersion=gd3\\Title Card Required\\-2,1\C,0,-1.09064,-0.2144
 78,-0.326192\C,0,-0.482136,0.63763,-1.408189\C,0,-1.054054,0.494825,1.
 006546\C,0,0.269357,1.715608,-1.178591\H,0,-0.683873,0.306497,-2.42141
 6\C,0,-2.592367,-0.604079,-0.668215\C,0,-0.306418,1.578271,1.236499\H,
 0,-1.62742,0.038436,1.806101\C,0,0.598202,2.192516,0.202632\H,0,0.7163
 42,2.278853,-1.994412\O,0,-3.03155,-0.25297,-1.786347\O,0,-3.195605,-1
 .259118,0.232499\H,0,-0.286173,2.028524,2.228665\O,0,0.500283,3.656725
 ,0.199323\H,0,1.640255,1.921979,0.433029\H,0,0.796259,3.944146,1.07406
 7\C,0,-0.310267,-1.585531,-0.24302\C,0,0.955888,-1.491706,0.588832\H,0
 ,-0.060556,-1.90957,-1.256727\H,0,-0.966129,-2.320187,0.226563\C,0,2.2
 51138,-1.026225,-0.114891\O,0,0.950402,-1.803922,1.775023\O,0,2.874661
 ,-0.054835,0.392995\O,0,2.537063,-1.707623,-1.134579\O,0,-2.011481,-2.
 228736,2.646387\H,0,-1.065003,-2.140885,2.447732\H,0,-2.45287,-1.93316
 9,1.821666\O,0,5.713784,-0.65712,0.700961\H,0,4.775916,-0.501884,0.914
 436\H,0,5.648892,-0.653487,-0.271514\O,0,4.662822,-0.163328,-1.939107\
 H,0,3.995379,-0.886374,-1.843235\H,0,4.271844,0.437491,-1.282388\O,0,-
 2.241187,4.063283,0.881979\H,0,-1.35943,4.048929,0.465679\H,0,-2.46011
 4,3.120987,0.871373\O,0,-5.560035,-1.5065,-1.388853\H,0,-4.872885,-0.9
 89566,-1.853276\H,0,-5.035914,-1.658559,-0.581046\\Version=EM64L-G09Re
 vD.01\State=1-A\HF=-1219.73325\RMSD=8.872e-09\Dipole=1.1911032,2.42094
 65,0.3150278\Quadrupole=-67.9057841,31.045825,36.8599591,2.8862334,-3.
 859334,6.2229302\PG=C01 [X(C10H18O11)]\\@


 Spring appears, and we are once more children.
                                  -- Anonymous
 Job cpu time:       0 days  0 hours  0 minutes 22.1 seconds.
 File lengths (MBytes):  RWF=    266 Int=      0 D2E=      0 Chk=      8 Scr=      1
 Normal termination of Gaussian 09 at Wed Feb  6 11:38:59 2019.
